 vasp.5.4.1 24Jun15 (build Dec 01 2015 13:38:29) complex                        
  
 executed on           IFC91_ompi date 2016.11.11  03:04:53
 running on    8 total cores
 distrk:  each k-point on    8 cores,    1 groups
 distr:  one band on NCORES_PER_BAND=   4 cores,    2 groups


--------------------------------------------------------------------------------------------------------


 INCAR:
 POTCAR:    PAW K_sv 22Nov2003                    
 POTCAR:    PAW V_sv 02Aug2007                    
 POTCAR:    PAW O 22Mar2012                       
 POTCAR:    PAW K_sv 22Nov2003                    
   VRHFIN =K:  3s3p4s1d                                                         
   LEXCH  = CA                                                                  
   EATOM  =   775.5499 eV,   57.0013 Ry                                         
                                                                                
   TITEL  = PAW K_sv 22Nov2003                                                  
   LULTRA =        F    use ultrasoft PP ?                                      
   IUNSCR =        1    unscreen: 0-lin 1-nonlin 2-no                           
   RPACOR =    2.200    partial core radius                                     
   POMASS =   39.098; ZVAL   =    9.000    mass and valenz                      
   RCORE  =    2.300    outmost cutoff radius                                   
   RWIGS  =    3.000; RWIGS  =    1.588    wigner-seitz radius (au A)           
   ENMAX  =  259.279; ENMIN  =  194.459 eV                                      
   RCLOC  =    2.005    cutoff for local pot                                    
   LCOR   =        T    correct aug charges                                     
   LPAW   =        T    paw PP                                                  
   EAUG   =  427.853                                                            
   DEXC   =    0.000                                                            
   RMAX   =    2.358    core radius for proj-oper                               
   RAUG   =    1.300    factor for augmentation sphere                          
   RDEP   =    2.372    radius for radial grids                                 
   RDEPT  =    2.002    core radius for aug-charge                              
                                                                                
   Atomic configuration                                                         
    7 entries                                                                   
     n  l   j            E        occ.                                          
     1  0  0.50     -3504.5031   2.0000                                         
     2  0  0.50      -351.7660   2.0000                                         
     2  1  1.50      -279.8441   6.0000                                         
     3  0  0.50       -35.1349   2.0000                                         
     4  0  0.50        -2.4291   1.0000                                         
     3  1  1.50       -18.8344   6.0000                                         
     3  2  1.50        -1.3606   0.0000                                         
   Description                                                                  
     l       E           TYP  RCUT    TYP  RCUT                                 
     0    -35.1348885     23  2.300                                             
     0     -2.4291394     23  2.300                                             
     1    -18.8344179     23  2.300                                             
     1    -20.4087390     23  2.300                                             
     2     -1.3605826     23  2.300                                             
  local pseudopotential read in
  partial core-charges read in
  partial kinetic energy density read in
  atomic valenz-charges read in
  non local Contribution for L=           0  read in
    real space projection operators read in
  non local Contribution for L=           0  read in
    real space projection operators read in
  non local Contribution for L=           1  read in
    real space projection operators read in
  non local Contribution for L=           1  read in
    real space projection operators read in
  non local Contribution for L=           2  read in
    real space projection operators read in
    PAW grid and wavefunctions read in
 
   number of l-projection  operators is LMAX  =           5
   number of lm-projection operators is LMMAX =          13
 
 POTCAR:    PAW V_sv 02Aug2007                    
   VRHFIN =V: 3s3p4s3d                                                          
   LEXCH  = CA                                                                  
   EATOM  =  1952.9749 eV,  143.5396 Ry                                         
                                                                                
   TITEL  = PAW V_sv 02Aug2007                                                  
   LULTRA =        F    use ultrasoft PP ?                                      
   IUNSCR =        1    unscreen: 0-lin 1-nonlin 2-no                           
   RPACOR =    2.000    partial core radius                                     
   POMASS =   50.941; ZVAL   =   13.000    mass and valenz                      
   RCORE  =    2.300    outmost cutoff radius                                   
   RWIGS  =    2.300; RWIGS  =    1.217    wigner-seitz radius (au A)           
   ENMAX  =  263.722; ENMIN  =  197.791 eV                                      
   ICORE  =        3    local potential                                         
   LCOR   =        T    correct aug charges                                     
   LPAW   =        T    paw PP                                                  
   EAUG   =  526.568                                                            
   RMAX   =    2.359    core radius for proj-oper                               
   RAUG   =    1.300    factor for augmentation sphere                          
   RDEP   =    2.430    radius for radial grids                                 
   RDEPT  =    1.870    core radius for aug-charge                              
                                                                                
   Atomic configuration                                                         
    8 entries                                                                   
     n  l   j            E        occ.                                          
     1  0  0.50     -5334.6266   2.0000                                         
     2  0  0.50      -595.8619   2.0000                                         
     2  1  1.50      -498.2253   6.0000                                         
     3  0  0.50       -66.0397   2.0000                                         
     4  0  0.50        -4.0393   1.0000                                         
     3  1  1.50       -40.3980   6.0000                                         
     3  2  2.50        -2.6339   4.0000                                         
     4  3  2.50        -1.3606   0.0000                                         
   Description                                                                  
     l       E           TYP  RCUT    TYP  RCUT                                 
     0    -66.0396999     23  1.800                                             
     0     -4.0392529     23  2.300                                             
     1    -40.3979618     23  2.000                                             
     1      5.4423304     23  2.000                                             
     2     -2.6338670     23  2.300                                             
     2     -1.2520253     23  2.300                                             
     3     -1.3605826     23  2.300                                             
  local pseudopotential read in
  partial core-charges read in
  partial kinetic energy density read in
  atomic valenz-charges read in
  non local Contribution for L=           0  read in
    real space projection operators read in
  non local Contribution for L=           0  read in
    real space projection operators read in
  non local Contribution for L=           1  read in
    real space projection operators read in
  non local Contribution for L=           1  read in
    real space projection operators read in
  non local Contribution for L=           2  read in
    real space projection operators read in
  non local Contribution for L=           2  read in
    real space projection operators read in
    PAW grid and wavefunctions read in
 
   number of l-projection  operators is LMAX  =           6
   number of lm-projection operators is LMMAX =          18
 
 POTCAR:    PAW O 22Mar2012                       
   VRHFIN =O: s2p4                                                              
   LEXCH  = CA                                                                  
   EATOM  =   431.4380 eV,   31.7098 Ry                                         
                                                                                
   TITEL  = PAW O 22Mar2012                                                     
   LULTRA =        F    use ultrasoft PP ?                                      
   IUNSCR =        1    unscreen: 0-lin 1-nonlin 2-no                           
   RPACOR =    1.200    partial core radius                                     
   POMASS =   16.000; ZVAL   =    6.000    mass and valenz                      
   RCORE  =    1.520    outmost cutoff radius                                   
   RWIGS  =    1.550; RWIGS  =    0.820    wigner-seitz radius (au A)           
   ENMAX  =  400.000; ENMIN  =  300.000 eV                                      
   ICORE  =        2    local potential                                         
   LCOR   =        T    correct aug charges                                     
   LPAW   =        T    paw PP                                                  
   EAUG   =  605.392                                                            
   DEXC   =    0.000                                                            
   RMAX   =    1.553    core radius for proj-oper                               
   RAUG   =    1.300    factor for augmentation sphere                          
   RDEP   =    1.550    radius for radial grids                                 
   RDEPT  =    1.329    core radius for aug-charge                              
                                                                                
   Atomic configuration                                                         
    4 entries                                                                   
     n  l   j            E        occ.                                          
     1  0  0.50      -510.4605   2.0000                                         
     2  0  0.50       -23.7367   2.0000                                         
     2  1  0.50        -9.1995   4.0000                                         
     3  2  1.50        -9.5241   0.0000                                         
   Description                                                                  
     l       E           TYP  RCUT    TYP  RCUT                                 
     0    -23.7366993     23  1.200                                             
     0     -9.5240782     23  1.200                                             
     1     -9.1994509     23  1.520                                             
     1      8.1634956     23  1.520                                             
     2     -9.5240782      7  1.500                                             
  local pseudopotential read in
  partial core-charges read in
  partial kinetic energy density read in
  kinetic energy density of atom read in
  atomic valenz-charges read in
  non local Contribution for L=           0  read in
    real space projection operators read in
  non local Contribution for L=           0  read in
    real space projection operators read in
  non local Contribution for L=           1  read in
    real space projection operators read in
  non local Contribution for L=           1  read in
    real space projection operators read in
    PAW grid and wavefunctions read in
 
   number of l-projection  operators is LMAX  =           4
   number of lm-projection operators is LMMAX =           8
 

 ----------------------------------------------------------------------------- 
|                                                                             |
|  ADVICE TO THIS USER RUNNING 'VASP/VAMP'   (HEAR YOUR MASTER'S VOICE ...):  |
|                                                                             |
|      You have a (more or less) 'large supercell' and for larger cells       |
|      it might be more efficient to use real space projection opertators     |
|      So try LREAL= Auto  in the INCAR   file.                               |
|      Mind: At the moment your POTCAR file does not contain real space       |
|       projectors, and has to be modified,  BUT if you                       |
|      want to do an extremely  accurate calculation you might also keep the  |
|      reciprocal projection scheme          (i.e. LREAL=.FALSE.)             |
|                                                                             |
 ----------------------------------------------------------------------------- 

  PAW K_sv 22Nov2003                    :
 energy of atom  1       EATOM= -775.5499
 kinetic energy error for atom=    0.0031 (will be added to EATOM!!)
  PAW V_sv 02Aug2007                    :
 energy of atom  2       EATOM=-1952.9749
 kinetic energy error for atom=    0.0318 (will be added to EATOM!!)
  PAW O 22Mar2012                       :
 energy of atom  3       EATOM= -431.4380
 kinetic energy error for atom=    0.1130 (will be added to EATOM!!)
 
 
 POSCAR: System POSCAR                           
  positions in direct lattice
  No initial velocities read in
 exchange correlation table for  LEXCH =        2
   RHO(1)=    0.500       N(1)  =     2000
   RHO(2)=  100.500       N(2)  =     4000
 


--------------------------------------------------------------------------------------------------------


 ion  position               nearest neighbor table
   1  0.201  0.807  0.700-  12 2.25  13 2.58  19 2.79  17 2.82   2 3.05   5 3.15   2 3.79
   2  0.798  0.322  0.675-   8 1.75  13 2.16   1 3.05   1 3.79
   3  0.550  0.353  0.280-   4 2.04  14 2.47
   4  0.431  0.566  0.237-   3 2.04  14 2.84   7 3.27
   5  0.342  0.745  0.933-   9 1.60   1 3.15
   6  0.675  0.387  0.974-  11 1.49  10 1.56
   7  0.249  0.524  0.483-  13 1.61  14 1.66  15 2.00  16 2.21  20 2.32   4 3.27
   8  0.717  0.414  0.561-   2 1.75  13 1.91  14 2.39
   9  0.608  0.935  0.924-   5 1.60
  10  0.913  0.442  0.018-   6 1.56
  11  0.471  0.413  0.955-   6 1.49
  12  0.459  0.906  0.567-  15 1.57  18 1.74   1 2.25
  13  0.034  0.509  0.547-   7 1.61   8 1.91   2 2.16   1 2.58
  14  0.439  0.445  0.454-   7 1.66  20 1.84   8 2.39   3 2.47   4 2.84
  15  0.356  0.853  0.451-  12 1.57  19 1.72   7 2.00
  16  0.926  0.202  0.450-   7 2.21
  17  0.915  0.907  0.573-  18 1.36  19 1.97   1 2.82
  18  0.698  0.874  0.574-  17 1.36  12 1.74
  19  0.087  0.804  0.484-  15 1.72  17 1.97   1 2.79
  20  0.254  0.199  0.540-  14 1.84   7 2.32
 
  LATTYP: Found a hexagonal cell.
 ALAT       =     6.7442995513
 C/A-ratio  =     1.8459039553
  
  Lattice vectors:
  
 A1 = (   6.7442995513,   0.0000000000,   0.0000000000)
 A2 = (  -3.3721497756,   5.8407347421,   0.0000000000)
 A3 = (   0.0000000000,   0.0000000000,  12.4493292172)


Analysis of symmetry for initial positions (statically):
=====================================================================
 Subroutine PRICEL returns:
 Original cell was already a primitive cell.
 

 Routine SETGRP: Setting up the symmetry group for a 
 hexagonal supercell.


 Subroutine GETGRP returns: Found  1 space group operations
 (whereof  1 operations were pure point group operations)
 out of a pool of 24 trial point group operations.


The static configuration has the point symmetry C_1 .


Analysis of symmetry for dynamics (positions and initial velocities):
=====================================================================
 Subroutine PRICEL returns:
 Original cell was already a primitive cell.
 

 Routine SETGRP: Setting up the symmetry group for a 
 hexagonal supercell.


 Subroutine GETGRP returns: Found  1 space group operations
 (whereof  1 operations were pure point group operations)
 out of a pool of 24 trial point group operations.


The dynamic configuration has the point symmetry C_1 .
 
 

Automatic generation of k-mesh.
 generate k-points for:    2    2    1
Space group operators:
 irot       det(A)        alpha          n_x          n_y          n_z        tau_x        tau_y        tau_z
    1     1.000000     0.000000     1.000000     0.000000     0.000000     0.000000     0.000000     0.000000
 
 Subroutine IBZKPT returns following result:
 ===========================================
 
 Found      6 irreducible k-points:
 
 Following reciprocal coordinates:
            Coordinates               Weight
  0.250000  0.250000  0.000000     16.000000
  0.500000 -0.250000  0.000000     16.000000
  0.250000  0.500000  0.000000     16.000000
 -0.250000  0.250000  0.000000     16.000000
  0.000000  0.250000  0.000000     16.000000
  0.250000  0.000000  0.000000     16.000000
 
 Following cartesian coordinates:
            Coordinates               Weight
  0.037068  0.064204  0.000000     16.000000
  0.074137  0.000000  0.000000     16.000000
  0.037068  0.107007  0.000000     16.000000
 -0.037068  0.021401  0.000000     16.000000
  0.000000  0.042803  0.000000     16.000000
  0.037068  0.021401  0.000000     16.000000
 


--------------------------------------------------------------------------------------------------------




 Dimension of arrays:
   k-points           NKPTS =      6   k-points in BZ     NKDIM =      6   number of bands    NBANDS=     96
   number of dos      NEDOS =    301   number of ions     NIONS =     20
   non local maximal  LDIM  =      6   non local SUM 2l+1 LMDIM =     18
   total plane-waves  NPLWV =  82944
   max r-space proj   IRMAX =      1   max aug-charges    IRDMAX=   8071
   dimension x,y,z NGX =    36 NGY =   36 NGZ =   64
   dimension x,y,z NGXF=    72 NGYF=   72 NGZF=  128
   support grid    NGXF=    72 NGYF=   72 NGZF=  128
   ions per type =               4   4  12
 NGX,Y,Z   is equivalent  to a cutoff of   8.87,  8.87,  8.55 a.u.
 NGXF,Y,Z  is equivalent  to a cutoff of  17.75, 17.75, 17.09 a.u.


 I would recommend the setting:
   dimension x,y,z NGX =    33 NGY =   33 NGZ =   61
 SYSTEM =  unknown system                          
 POSCAR =  System POSCAR                           

 Startparameter for this run:
   NWRITE =      2    write-flag & timer
   PREC   = normal    normal or accurate (medium, high low for compatibility)
   ISTART =      0    job   : 0-new  1-cont  2-samecut
   ICHARG =      2    charge: 1-file 2-atom 10-const
   ISPIN  =      1    spin polarized calculation?
   LNONCOLLINEAR =      F non collinear calculations
   LSORBIT =      F    spin-orbit coupling
   INIWAV =      1    electr: 0-lowe 1-rand  2-diag
   LASPH  =      F    aspherical Exc in radial PAW
   METAGGA=      F    non-selfconsistent MetaGGA calc.

 Electronic Relaxation 1
   ENCUT  =  400.0 eV  29.40 Ry    5.42 a.u.  11.00 11.00 20.30*2*pi/ulx,y,z
   ENINI  =  400.0     initial cutoff
   ENAUG  =  605.4 eV  augmentation charge cutoff
   NELM   =     60;   NELMIN=  4; NELMDL= -5     # of ELM steps 
   EDIFF  = 0.4E-03   stopping-criterion for ELM
   LREAL  =      F    real-space projection
   NLSPLINE    = F    spline interpolate recip. space projectors
   LCOMPAT=      F    compatible to vasp.4.4
   GGA_COMPAT  = T    GGA compatible to vasp.4.4-vasp.4.6
   LMAXPAW     = -100 max onsite density
   LMAXMIX     =    2 max onsite mixed and CHGCAR
   VOSKOWN=      0    Vosko Wilk Nusair interpolation
   ROPT   =    0.00000   0.00000   0.00000
 Ionic relaxation
   EDIFFG = 0.4E-02   stopping-criterion for IOM
   NSW    =    191    number of steps for IOM
   NBLOCK =      1;   KBLOCK =    191    inner block; outer block 
   IBRION =      2    ionic relax: 0-MD 1-quasi-New 2-CG
   NFREE  =      1    steps in history (QN), initial steepest desc. (CG)
   ISIF   =      3    stress and relaxation
   IWAVPR =     11    prediction:  0-non 1-charg 2-wave 3-comb
   ISYM   =      2    0-nonsym 1-usesym 2-fastsym
   LCORR  =      T    Harris-Foulkes like correction to forces

   POTIM  = 0.5000    time-step for ionic-motion
   TEIN   =    0.0    initial temperature
   TEBEG  =    0.0;   TEEND  =   0.0 temperature during run
   SMASS  =  -3.00    Nose mass-parameter (am)
   estimated Nose-frequenzy (Omega)   =  0.10E-29 period in steps =****** mass=  -0.104E-26a.u.
   SCALEE = 1.0000    scale energy and forces
   NPACO  =    256;   APACO  = 16.0  distance and # of slots for P.C.
   PSTRESS=    0.0 pullay stress

  Mass of Ions in am
   POMASS =  39.10 50.94 16.00
  Ionic Valenz
   ZVAL   =   9.00 13.00  6.00
  Atomic Wigner-Seitz radii
   RWIGS  =  -1.00 -1.00 -1.00
  virtual crystal weights 
   VCA    =   1.00  1.00  1.00
   NELECT =     160.0000    total number of electrons
   NUPDOWN=      -1.0000    fix difference up-down

 DOS related values:
   EMIN   =  10.00;   EMAX   =-10.00  energy-range for DOS
   EFERMI =   0.00
   ISMEAR =     0;   SIGMA  =   0.01  broadening in eV -4-tet -1-fermi 0-gaus

 Electronic relaxation 2 (details)
   IALGO  =     38    algorithm
   LDIAG  =      T    sub-space diagonalisation (order eigenvalues)
   LSUBROT=      F    optimize rotation matrix (better conditioning)
   TURBO    =      0    0=normal 1=particle mesh
   IRESTART =      0    0=no restart 2=restart with 2 vectors
   NREBOOT  =      0    no. of reboots
   NMIN     =      0    reboot dimension
   EREF     =   0.00    reference energy to select bands
   IMIX   =      4    mixing-type and parameters
     AMIX     =   0.40;   BMIX     =  1.00
     AMIX_MAG =   1.60;   BMIX_MAG =  1.00
     AMIN     =   0.10
     WC   =   100.;   INIMIX=   1;  MIXPRE=   1;  MAXMIX= -45

 Intra band minimization:
   WEIMIN = 0.0010     energy-eigenvalue tresh-hold
   EBREAK =  0.10E-05  absolut break condition
   DEPER  =   0.30     relativ break condition  

   TIME   =   0.40     timestep for ELM

  volume/ion in A,a.u.               =      24.52       165.47
  Fermi-wavevector in a.u.,A,eV,Ry     =   1.127019  2.129758 17.281749  1.270173
  Thomas-Fermi vector in A             =   2.263704
 
 Write flags
   LWAVE  =      T    write WAVECAR
   LCHARG =      F    write CHGCAR
   LVTOT  =      F    write LOCPOT, total local potential
   LVHAR  =      F    write LOCPOT, Hartree potential only
   LELF   =      F    write electronic localiz. function (ELF)
   LORBIT =      0    0 simple, 1 ext, 2 COOP (PROOUT)


 Dipole corrections
   LMONO  =      F    monopole corrections only (constant potential shift)
   LDIPOL =      F    correct potential (dipole corrections)
   IDIPOL =      0    1-x, 2-y, 3-z, 4-all directions 
   EPSILON=  1.0000000 bulk dielectric constant

 Exchange correlation treatment:
   GGA     =    --    GGA type
   LEXCH   =     2    internal setting for exchange type
   VOSKOWN=      0    Vosko Wilk Nusair interpolation
   LHFCALC =     F    Hartree Fock is set to
   LHFONE  =     F    Hartree Fock one center treatment
   AEXX    =    0.0000 exact exchange contribution

 Linear response parameters
   LEPSILON=     F    determine dielectric tensor
   LRPA    =     F    only Hartree local field effects (RPA)
   LNABLA  =     F    use nabla operator in PAW spheres
   LVEL    =     F    velocity operator in full k-point grid
   LINTERFAST=   F  fast interpolation
   KINTER  =     0    interpolate to denser k-point grid
   CSHIFT  =0.1000    complex shift for real part using Kramers Kronig
   OMEGAMAX=  -1.0    maximum frequency
   DEG_THRESHOLD= 0.2000000E-02 threshold for treating states as degnerate
   RTIME   =    0.100 relaxation time in fs

 Orbital magnetization related:
   ORBITALMAG=     F  switch on orbital magnetization
   LCHIMAG   =     F  perturbation theory with respect to B field
   DQ        =  0.001000  dq finite difference perturbation B field



--------------------------------------------------------------------------------------------------------


 conjugate gradient relaxation of ions
 charge density and potential will be updated during run
 non-spin polarized calculation
 Variant of blocked Davidson
 Davidson routine will perform the subspace rotation
 perform sub-space diagonalisation
    after iterative eigenvector-optimisation
 modified Broyden-mixing scheme, WC =      100.0
 initial mixing is a Kerker type mixing with AMIX =  0.4000 and BMIX =      1.0000
 Hartree-type preconditioning will be used
 using additional bands           16
 reciprocal scheme for non local part
 use partial core corrections
 calculate Harris-corrections to forces 
   (improved forces if not selfconsistent)
 use of overlap-Matrix (Vanderbilt PP)
 Gauss-broadening in eV      SIGMA  =   0.01


--------------------------------------------------------------------------------------------------------


  energy-cutoff  :      400.00
  volume of cell :      490.40
      direct lattice vectors                 reciprocal lattice vectors
     6.744299551  0.000000000  0.000000000     0.148273367  0.085605668  0.000000000
    -3.372149776  5.840734742  0.000000000     0.000000000  0.171211336  0.000000000
     0.000000000  0.000000000 12.449329217     0.000000000  0.000000000  0.080325613

  length of vectors
     6.744299551  6.744299551 12.449329217     0.171211336  0.171211336  0.080325613


 
 k-points in units of 2pi/SCALE and weight: read from INCAR                         
   0.03706834  0.06420425  0.00000000       0.167
   0.07413668  0.00000000  0.00000000       0.167
   0.03706834  0.10700709  0.00000000       0.167
  -0.03706834  0.02140142  0.00000000       0.167
   0.00000000  0.04280283  0.00000000       0.167
   0.03706834  0.02140142  0.00000000       0.167
 
 k-points in reciprocal lattice and weights: read from INCAR                         
   0.25000000  0.25000000  0.00000000       0.167
   0.50000000 -0.25000000  0.00000000       0.167
   0.25000000  0.50000000  0.00000000       0.167
  -0.25000000  0.25000000  0.00000000       0.167
   0.00000000  0.25000000  0.00000000       0.167
   0.25000000  0.00000000  0.00000000       0.167
 
 position of ions in fractional coordinates (direct lattice) 
   0.20084966  0.80718489  0.69965708
   0.79798476  0.32237398  0.67516416
   0.55036786  0.35317665  0.27988012
   0.43107082  0.56618062  0.23653259
   0.34244147  0.74543134  0.93306357
   0.67496162  0.38710002  0.97356318
   0.24859220  0.52384945  0.48305781
   0.71652940  0.41430000  0.56063067
   0.60801139  0.93459897  0.92379883
   0.91291135  0.44173485  0.01840253
   0.47086584  0.41301743  0.95462047
   0.45870991  0.90648427  0.56680529
   0.03409236  0.50902935  0.54737109
   0.43900291  0.44506628  0.45408137
   0.35589936  0.85321476  0.45065950
   0.92585998  0.20215702  0.45029625
   0.91491292  0.90696287  0.57291539
   0.69847366  0.87437799  0.57389083
   0.08687541  0.80422755  0.48368200
   0.25422747  0.19856557  0.54011990
 
 position of ions in cartesian coordinates  (Angst):
  -1.36735808  4.71455285  8.71026138
   4.29475492  1.88290091  8.40534085
   2.52088117  2.06281115  3.48431980
   0.99802490  3.30691081  2.94467208
  -0.20417832  4.35386675 11.61601557
   3.24678413  2.26094853 12.12020849
  -0.08991856  3.05966566  6.01374568
   3.43540728  2.41981639  6.97947577
   0.94900322  5.45874465 11.50067571
   4.66735153  2.58005610  0.22909913
   1.78290364  2.41232524 11.88438445
   0.03687629  5.29453418  7.05634571
  -1.48659416  2.97310542  6.81440294
   1.45993695  2.59951409  5.65300853
  -0.47687608  4.98340108  5.61040846
   5.56257329  1.18074553  5.60588622
   3.11203215  5.29732954  7.13241230
   1.76218208  5.10700989  7.14455584
  -2.12606199  4.69727978  6.02151643
   1.04499339  1.15976880  6.72413040
 


--------------------------------------------------------------------------------------------------------


 k-point  1 :   0.2500 0.2500 0.0000  plane waves:    8925
 k-point  2 :   0.5000-0.2500 0.0000  plane waves:    8925
 k-point  3 :   0.2500 0.5000 0.0000  plane waves:    8925
 k-point  4 :  -0.2500 0.2500 0.0000  plane waves:    8911
 k-point  5 :   0.0000 0.2500 0.0000  plane waves:    8911
 k-point  6 :   0.2500 0.0000 0.0000  plane waves:    8911

 maximum and minimum number of plane-waves per node :      2245     2218

 maximum number of plane-waves:      8925
 maximum index in each direction: 
   IXMAX=   11   IYMAX=   11   IZMAX=   20
   IXMIN=  -11   IYMIN=  -11   IZMIN=  -20

 WARNING: aliasing errors must be expected set NGX to  46 to avoid them
 WARNING: aliasing errors must be expected set NGY to  46 to avoid them
 WARNING: aliasing errors must be expected set NGZ to  82 to avoid them
 aliasing errors are usually negligible using standard VASP settings
 and one can safely disregard these warnings

 parallel 3D FFT for wavefunctions:
    minimum data exchange during FFTs selected (reduces bandwidth)
 parallel 3D FFT for charge:
    minimum data exchange during FFTs selected (reduces bandwidth)


 total amount of memory used by VASP on root node    56887. kBytes
========================================================================

   base      :      30000. kBytes
   nonl-proj :       6534. kBytes
   fftplans  :       3473. kBytes
   grid      :       6205. kBytes
   one-center:         77. kBytes
   wavefun   :      10598. kBytes
 
     INWAV:  cpu time    0.0000: real time    0.0000
 Broyden mixing: mesh for mixing (old mesh)
   NGX = 21   NGY = 21   NGZ = 41
  (NGX  = 72   NGY  = 72   NGZ  =128)
  gives a total of  18081 points

 initial charge density was supplied:
 charge density of overlapping atoms calculated
 number of electron     160.0000000 magnetization 
 keeping initial charge density in first step


--------------------------------------------------------------------------------------------------------


 Maximum index for augmentation-charges          975 (set IRDMAX)


--------------------------------------------------------------------------------------------------------


 First call to EWALD:  gamma=   0.225
 Maximum number of real-space cells 4x 4x 2
 Maximum number of reciprocal cells 2x 2x 4

 FEWALD executed in parallel
    FEWALD:  cpu time    0.0020: real time    0.0022


----------------------------------------- Iteration    1(   1)  ---------------------------------------


    POTLOK:  cpu time    0.0270: real time    0.0272
    SETDIJ:  cpu time    0.0070: real time    0.0069
     EDDAV:  cpu time    3.5045: real time    3.5120
       DOS:  cpu time    0.0000: real time    0.0003
    --------------------------------------------
      LOOP:  cpu time    3.5385: real time    3.5507

 eigenvalue-minimisations  :  1336
 total energy-change (2. order) : 0.1561562E+04  (-0.7667577E+04)
 number of electron     160.0000000 magnetization 
 augmentation part      160.0000000 magnetization 

 Free energy of the ion-electron system (eV)
  ---------------------------------------------------
  alpha Z        PSCENC =       389.01631868
  Ewald energy   TEWEN  =     -3797.06210248
  -Hartree energ DENC   =    -10608.93610911
  -exchange      EXHF   =         0.00000000
  -V(xc)+E(xc)   XCENC  =       764.02113006
  PAW double counting   =     12690.80487549   -12779.15586427
  entropy T*S    EENTRO =         0.00000000
  eigenvalues    EBANDS =     -1186.98531206
  atomic energy  EATOM  =     16089.85910124
  Solvation  Ediel_sol  =         0.00000000
  ---------------------------------------------------
  free energy    TOTEN  =      1561.56203756 eV

  energy without entropy =     1561.56203756  energy(sigma->0) =     1561.56203756


--------------------------------------------------------------------------------------------------------




----------------------------------------- Iteration    1(   2)  ---------------------------------------


     EDDAV:  cpu time    3.6704: real time    3.7027
       DOS:  cpu time    0.0020: real time    0.0015
    --------------------------------------------
      LOOP:  cpu time    3.6724: real time    3.7067

 eigenvalue-minimisations  :  1368
 total energy-change (2. order) :-0.1493207E+04  (-0.1439656E+04)
 number of electron     160.0000000 magnetization 
 augmentation part      160.0000000 magnetization 

 Free energy of the ion-electron system (eV)
  ---------------------------------------------------
  alpha Z        PSCENC =       389.01631868
  Ewald energy   TEWEN  =     -3797.06210248
  -Hartree energ DENC   =    -10608.93610911
  -exchange      EXHF   =         0.00000000
  -V(xc)+E(xc)   XCENC  =       764.02113006
  PAW double counting   =     12690.80487549   -12779.15586427
  entropy T*S    EENTRO =        -0.00102933
  eigenvalues    EBANDS =     -2680.19174384
  atomic energy  EATOM  =     16089.85910124
  Solvation  Ediel_sol  =         0.00000000
  ---------------------------------------------------
  free energy    TOTEN  =        68.35457645 eV

  energy without entropy =       68.35560578  energy(sigma->0) =       68.35509111


--------------------------------------------------------------------------------------------------------




----------------------------------------- Iteration    1(   3)  ---------------------------------------


     EDDAV:  cpu time    4.3073: real time    4.3111
       DOS:  cpu time    0.0020: real time    0.0013
    --------------------------------------------
      LOOP:  cpu time    4.3113: real time    4.5356

 eigenvalue-minimisations  :  1584
 total energy-change (2. order) :-0.2031192E+03  (-0.1934822E+03)
 number of electron     160.0000000 magnetization 
 augmentation part      160.0000000 magnetization 

 Free energy of the ion-electron system (eV)
  ---------------------------------------------------
  alpha Z        PSCENC =       389.01631868
  Ewald energy   TEWEN  =     -3797.06210248
  -Hartree energ DENC   =    -10608.93610911
  -exchange      EXHF   =         0.00000000
  -V(xc)+E(xc)   XCENC  =       764.02113006
  PAW double counting   =     12690.80487549   -12779.15586427
  entropy T*S    EENTRO =        -0.00024786
  eigenvalues    EBANDS =     -2883.31168739
  atomic energy  EATOM  =     16089.85910124
  Solvation  Ediel_sol  =         0.00000000
  ---------------------------------------------------
  free energy    TOTEN  =      -134.76458563 eV

  energy without entropy =     -134.76433777  energy(sigma->0) =     -134.76446170


--------------------------------------------------------------------------------------------------------




----------------------------------------- Iteration    1(   4)  ---------------------------------------


     EDDAV:  cpu time    4.3023: real time    4.3041
       DOS:  cpu time    0.0000: real time    0.0002
    --------------------------------------------
      LOOP:  cpu time    4.3023: real time    4.3079

 eigenvalue-minimisations  :  1712
 total energy-change (2. order) :-0.1128967E+02  (-0.1020565E+02)
 number of electron     160.0000000 magnetization 
 augmentation part      160.0000000 magnetization 

 Free energy of the ion-electron system (eV)
  ---------------------------------------------------
  alpha Z        PSCENC =       389.01631868
  Ewald energy   TEWEN  =     -3797.06210248
  -Hartree energ DENC   =    -10608.93610911
  -exchange      EXHF   =         0.00000000
  -V(xc)+E(xc)   XCENC  =       764.02113006
  PAW double counting   =     12690.80487549   -12779.15586427
  entropy T*S    EENTRO =         0.00000000
  eigenvalues    EBANDS =     -2894.60160162
  atomic energy  EATOM  =     16089.85910124
  Solvation  Ediel_sol  =         0.00000000
  ---------------------------------------------------
  free energy    TOTEN  =      -146.05425200 eV

  energy without entropy =     -146.05425200  energy(sigma->0) =     -146.05425200


--------------------------------------------------------------------------------------------------------




----------------------------------------- Iteration    1(   5)  ---------------------------------------


     EDDAV:  cpu time    4.5093: real time    4.5115
       DOS:  cpu time    0.0000: real time    0.0003
    CHARGE:  cpu time    0.1280: real time    0.1279
    MIXING:  cpu time    0.0030: real time    0.0022
    --------------------------------------------
      LOOP:  cpu time    4.6403: real time    4.6450

 eigenvalue-minimisations  :  1816
 total energy-change (2. order) :-0.5716306E+00  (-0.5607323E+00)
 number of electron     159.9999982 magnetization 
 augmentation part       31.2409042 magnetization 

 Broyden mixing:
  rms(total) = 0.88290E+01    rms(broyden)= 0.88267E+01
  rms(prec ) = 0.99203E+01
  weight for this iteration     100.00

 Free energy of the ion-electron system (eV)
  ---------------------------------------------------
  alpha Z        PSCENC =       389.01631868
  Ewald energy   TEWEN  =     -3797.06210248
  -Hartree energ DENC   =    -10608.93610911
  -exchange      EXHF   =         0.00000000
  -V(xc)+E(xc)   XCENC  =       764.02113006
  PAW double counting   =     12690.80487549   -12779.15586427
  entropy T*S    EENTRO =         0.00000000
  eigenvalues    EBANDS =     -2895.17323224
  atomic energy  EATOM  =     16089.85910124
  Solvation  Ediel_sol  =         0.00000000
  ---------------------------------------------------
  free energy    TOTEN  =      -146.62588262 eV

  energy without entropy =     -146.62588262  energy(sigma->0) =     -146.62588262


--------------------------------------------------------------------------------------------------------




----------------------------------------- Iteration    1(   6)  ---------------------------------------


    POTLOK:  cpu time    0.0270: real time    0.0270
    SETDIJ:  cpu time    0.0080: real time    0.0074
     EDDAV:  cpu time    4.0974: real time    4.0993
       DOS:  cpu time    0.0010: real time    0.0015
    CHARGE:  cpu time    0.1280: real time    0.1282
    MIXING:  cpu time    0.0030: real time    0.0024
    --------------------------------------------
      LOOP:  cpu time    4.2644: real time    4.2698

 eigenvalue-minimisations  :  1616
 total energy-change (2. order) :-0.1086868E+03  (-0.9475969E+02)
 number of electron     159.9999943 magnetization 
 augmentation part       40.3643703 magnetization 

 Broyden mixing:
  rms(total) = 0.11483E+02    rms(broyden)= 0.11480E+02
  rms(prec ) = 0.16009E+02
  weight for this iteration     100.00

 eigenvalues of (default mixing * dielectric matrix)
  average eigenvalue GAMMA=   0.3909
  0.3909

 Free energy of the ion-electron system (eV)
  ---------------------------------------------------
  alpha Z        PSCENC =       389.01631868
  Ewald energy   TEWEN  =     -3797.06210248
  -Hartree energ DENC   =    -10699.89554973
  -exchange      EXHF   =         0.00000000
  -V(xc)+E(xc)   XCENC  =       771.49671846
  PAW double counting   =     14892.39281573   -14991.11611671
  entropy T*S    EENTRO =        -0.00149096
  eigenvalues    EBANDS =     -2910.00236800
  atomic energy  EATOM  =     16089.85910124
  Solvation  Ediel_sol  =         0.00000000
  ---------------------------------------------------
  free energy    TOTEN  =      -255.31267377 eV

  energy without entropy =     -255.31118280  energy(sigma->0) =     -255.31192829


--------------------------------------------------------------------------------------------------------




----------------------------------------- Iteration    1(   7)  ---------------------------------------


    POTLOK:  cpu time    0.0270: real time    0.0269
    SETDIJ:  cpu time    0.0070: real time    0.0073
     EDDAV:  cpu time    4.0764: real time    4.0783
       DOS:  cpu time    0.0010: real time    0.0009
    CHARGE:  cpu time    0.1290: real time    0.1292
    MIXING:  cpu time    0.0020: real time    0.0025
    --------------------------------------------
      LOOP:  cpu time    4.2424: real time    4.2480

 eigenvalue-minimisations  :  1600
 total energy-change (2. order) : 0.1558631E+03  (-0.5919956E+02)
 number of electron     159.9999967 magnetization 
 augmentation part       31.6602773 magnetization 

 Broyden mixing:
  rms(total) = 0.44384E+01    rms(broyden)= 0.44324E+01
  rms(prec ) = 0.57512E+01
  weight for this iteration     100.00

 eigenvalues of (default mixing * dielectric matrix)
  average eigenvalue GAMMA=   0.6428
  0.9995  0.2861

 Free energy of the ion-electron system (eV)
  ---------------------------------------------------
  alpha Z        PSCENC =       389.01631868
  Ewald energy   TEWEN  =     -3797.06210248
  -Hartree energ DENC   =    -10801.35293681
  -exchange      EXHF   =         0.00000000
  -V(xc)+E(xc)   XCENC  =       773.77352399
  PAW double counting   =     15761.54296708   -15864.27565546
  entropy T*S    EENTRO =        -0.00000003
  eigenvalues    EBANDS =     -2650.95079472
  atomic energy  EATOM  =     16089.85910124
  Solvation  Ediel_sol  =         0.00000000
  ---------------------------------------------------
  free energy    TOTEN  =       -99.44957849 eV

  energy without entropy =      -99.44957846  energy(sigma->0) =      -99.44957848


--------------------------------------------------------------------------------------------------------




----------------------------------------- Iteration    1(   8)  ---------------------------------------


    POTLOK:  cpu time    0.0270: real time    0.0269
    SETDIJ:  cpu time    0.0080: real time    0.0073
     EDDAV:  cpu time    4.0694: real time    4.0765
       DOS:  cpu time    0.0000: real time    0.0002
    CHARGE:  cpu time    0.1270: real time    0.1275
    MIXING:  cpu time    0.0030: real time    0.0025
    --------------------------------------------
      LOOP:  cpu time    4.2354: real time    4.2441

 eigenvalue-minimisations  :  1600
 total energy-change (2. order) :-0.4032002E+02  (-0.6785750E+02)
 number of electron     159.9999954 magnetization 
 augmentation part       30.8818707 magnetization 

 Broyden mixing:
  rms(total) = 0.44272E+01    rms(broyden)= 0.44244E+01
  rms(prec ) = 0.55718E+01
  weight for this iteration     100.00

 eigenvalues of (default mixing * dielectric matrix)
  average eigenvalue GAMMA=   0.7306
  1.5759  0.3079  0.3079

 Free energy of the ion-electron system (eV)
  ---------------------------------------------------
  alpha Z        PSCENC =       389.01631868
  Ewald energy   TEWEN  =     -3797.06210248
  -Hartree energ DENC   =    -10819.73965059
  -exchange      EXHF   =         0.00000000
  -V(xc)+E(xc)   XCENC  =       770.89934013
  PAW double counting   =     16730.49729747   -16831.64797065
  entropy T*S    EENTRO =         0.00000000
  eigenvalues    EBANDS =     -2671.59193593
  atomic energy  EATOM  =     16089.85910124
  Solvation  Ediel_sol  =         0.00000000
  ---------------------------------------------------
  free energy    TOTEN  =      -139.76960213 eV

  energy without entropy =     -139.76960213  energy(sigma->0) =     -139.76960213


--------------------------------------------------------------------------------------------------------




----------------------------------------- Iteration    1(   9)  ---------------------------------------


    POTLOK:  cpu time    0.0270: real time    0.0270
    SETDIJ:  cpu time    0.0070: real time    0.0072
     EDDAV:  cpu time    4.0084: real time    4.0130
       DOS:  cpu time    0.0010: real time    0.0011
    CHARGE:  cpu time    0.1310: real time    0.1310
    MIXING:  cpu time    0.0020: real time    0.0026
    --------------------------------------------
      LOOP:  cpu time    4.1764: real time    4.1868

 eigenvalue-minimisations  :  1568
 total energy-change (2. order) : 0.6978743E+01  (-0.1084782E+02)
 number of electron     159.9999980 magnetization 
 augmentation part       31.8422213 magnetization 

 Broyden mixing:
  rms(total) = 0.40113E+01    rms(broyden)= 0.40091E+01
  rms(prec ) = 0.55774E+01
  weight for this iteration     100.00

 eigenvalues of (default mixing * dielectric matrix)
  average eigenvalue GAMMA=   0.6445
  1.6594  0.2791  0.3197  0.3197

 Free energy of the ion-electron system (eV)
  ---------------------------------------------------
  alpha Z        PSCENC =       389.01631868
  Ewald energy   TEWEN  =     -3797.06210248
  -Hartree energ DENC   =    -10786.62782720
  -exchange      EXHF   =         0.00000000
  -V(xc)+E(xc)   XCENC  =       770.51332062
  PAW double counting   =     17715.68185710   -17817.69325377
  entropy T*S    EENTRO =        -0.00000360
  eigenvalues    EBANDS =     -2696.47826945
  atomic energy  EATOM  =     16089.85910124
  Solvation  Ediel_sol  =         0.00000000
  ---------------------------------------------------
  free energy    TOTEN  =      -132.79085886 eV

  energy without entropy =     -132.79085526  energy(sigma->0) =     -132.79085706


--------------------------------------------------------------------------------------------------------




----------------------------------------- Iteration    1(  10)  ---------------------------------------


    POTLOK:  cpu time    0.0270: real time    0.0270
    SETDIJ:  cpu time    0.0070: real time    0.0073
     EDDAV:  cpu time    3.9114: real time    3.9137
       DOS:  cpu time    0.0020: real time    0.0013
    CHARGE:  cpu time    0.1330: real time    0.1335
    MIXING:  cpu time    0.0030: real time    0.0027
    --------------------------------------------
      LOOP:  cpu time    4.0854: real time    4.0889

 eigenvalue-minimisations  :  1520
 total energy-change (2. order) : 0.2152667E+02  (-0.3611097E+01)
 number of electron     159.9999961 magnetization 
 augmentation part       30.4546431 magnetization 

 Broyden mixing:
  rms(total) = 0.30085E+01    rms(broyden)= 0.30063E+01
  rms(prec ) = 0.38957E+01
  weight for this iteration     100.00

 eigenvalues of (default mixing * dielectric matrix)
  average eigenvalue GAMMA=   0.7074
  1.9775  0.5365  0.5365  0.2431  0.2431

 Free energy of the ion-electron system (eV)
  ---------------------------------------------------
  alpha Z        PSCENC =       389.01631868
  Ewald energy   TEWEN  =     -3797.06210248
  -Hartree energ DENC   =    -10792.09208021
  -exchange      EXHF   =         0.00000000
  -V(xc)+E(xc)   XCENC  =       770.55691341
  PAW double counting   =     17960.39552584   -18062.93174403
  entropy T*S    EENTRO =        -0.00008073
  eigenvalues    EBANDS =     -2669.00604169
  atomic energy  EATOM  =     16089.85910124
  Solvation  Ediel_sol  =         0.00000000
  ---------------------------------------------------
  free energy    TOTEN  =      -111.26418997 eV

  energy without entropy =     -111.26410924  energy(sigma->0) =     -111.26414961


--------------------------------------------------------------------------------------------------------




----------------------------------------- Iteration    1(  11)  ---------------------------------------


    POTLOK:  cpu time    0.0270: real time    0.0270
    SETDIJ:  cpu time    0.0070: real time    0.0072
     EDDAV:  cpu time    4.2394: real time    4.2470
       DOS:  cpu time    0.0010: real time    0.0013
    CHARGE:  cpu time    0.1280: real time    0.1275
    MIXING:  cpu time    0.0030: real time    0.0028
    --------------------------------------------
      LOOP:  cpu time    4.4053: real time    4.4162

 eigenvalue-minimisations  :  1680
 total energy-change (2. order) : 0.2122028E+01  (-0.3451892E+01)
 number of electron     159.9999978 magnetization 
 augmentation part       32.6234005 magnetization 

 Broyden mixing:
  rms(total) = 0.36499E+01    rms(broyden)= 0.36470E+01
  rms(prec ) = 0.51118E+01
  weight for this iteration     100.00

 eigenvalues of (default mixing * dielectric matrix)
  average eigenvalue GAMMA=   0.6496
  2.1731  0.4820  0.4820  0.2793  0.2793  0.2018

 Free energy of the ion-electron system (eV)
  ---------------------------------------------------
  alpha Z        PSCENC =       389.01631868
  Ewald energy   TEWEN  =     -3797.06210248
  -Hartree energ DENC   =    -10748.11118446
  -exchange      EXHF   =         0.00000000
  -V(xc)+E(xc)   XCENC  =       769.27539072
  PAW double counting   =     18360.62008197   -18464.69037364
  entropy T*S    EENTRO =        -0.00014563
  eigenvalues    EBANDS =     -2708.04924822
  atomic energy  EATOM  =     16089.85910124
  Solvation  Ediel_sol  =         0.00000000
  ---------------------------------------------------
  free energy    TOTEN  =      -109.14216183 eV

  energy without entropy =     -109.14201620  energy(sigma->0) =     -109.14208901


--------------------------------------------------------------------------------------------------------




----------------------------------------- Iteration    1(  12)  ---------------------------------------


    POTLOK:  cpu time    0.0270: real time    0.0271
    SETDIJ:  cpu time    0.0070: real time    0.0073
     EDDAV:  cpu time    4.2404: real time    4.2426
       DOS:  cpu time    0.0010: real time    0.0012
    CHARGE:  cpu time    0.1280: real time    0.1281
    MIXING:  cpu time    0.0030: real time    0.0029
    --------------------------------------------
      LOOP:  cpu time    4.4083: real time    4.4123

 eigenvalue-minimisations  :  1680
 total energy-change (2. order) : 0.6440749E+01  (-0.3224844E+01)
 number of electron     159.9999948 magnetization 
 augmentation part       31.5505712 magnetization 

 Broyden mixing:
  rms(total) = 0.16427E+01    rms(broyden)= 0.16374E+01
  rms(prec ) = 0.22300E+01
  weight for this iteration     100.00

 eigenvalues of (default mixing * dielectric matrix)
  average eigenvalue GAMMA=   0.6095
  2.1854  0.4870  0.3595  0.3595  0.3538  0.3538  0.1678

 Free energy of the ion-electron system (eV)
  ---------------------------------------------------
  alpha Z        PSCENC =       389.01631868
  Ewald energy   TEWEN  =     -3797.06210248
  -Hartree energ DENC   =    -10769.60914753
  -exchange      EXHF   =         0.00000000
  -V(xc)+E(xc)   XCENC  =       769.98923719
  PAW double counting   =     18659.13529181   -18763.84229571
  entropy T*S    EENTRO =        -0.00085505
  eigenvalues    EBANDS =     -2680.18696053
  atomic energy  EATOM  =     16089.85910124
  Solvation  Ediel_sol  =         0.00000000
  ---------------------------------------------------
  free energy    TOTEN  =      -102.70141237 eV

  energy without entropy =     -102.70055732  energy(sigma->0) =     -102.70098484


--------------------------------------------------------------------------------------------------------




----------------------------------------- Iteration    1(  13)  ---------------------------------------


    POTLOK:  cpu time    0.0270: real time    0.0270
    SETDIJ:  cpu time    0.0070: real time    0.0072
     EDDAV:  cpu time    4.0534: real time    4.1256
       DOS:  cpu time    0.0020: real time    0.0015
    CHARGE:  cpu time    0.1300: real time    0.1314
    MIXING:  cpu time    0.0050: real time    0.6786
    --------------------------------------------
      LOOP:  cpu time    4.2244: real time    4.9748

 eigenvalue-minimisations  :  1552
 total energy-change (2. order) : 0.6883652E+00  (-0.5252992E+00)
 number of electron     159.9999970 magnetization 
 augmentation part       31.4791597 magnetization 

 Broyden mixing:
  rms(total) = 0.14869E+01    rms(broyden)= 0.14849E+01
  rms(prec ) = 0.22702E+01
  weight for this iteration     100.00

 eigenvalues of (default mixing * dielectric matrix)
  average eigenvalue GAMMA=   0.5713
  2.1743  0.5158  0.5158  0.3684  0.3684  0.2348  0.2348  0.1584

 Free energy of the ion-electron system (eV)
  ---------------------------------------------------
  alpha Z        PSCENC =       389.01631868
  Ewald energy   TEWEN  =     -3797.06210248
  -Hartree energ DENC   =    -10758.22049819
  -exchange      EXHF   =         0.00000000
  -V(xc)+E(xc)   XCENC  =       769.80956681
  PAW double counting   =     18702.87468566   -18807.22050696
  entropy T*S    EENTRO =        -0.00194959
  eigenvalues    EBANDS =     -2691.06766239
  atomic energy  EATOM  =     16089.85910124
  Solvation  Ediel_sol  =         0.00000000
  ---------------------------------------------------
  free energy    TOTEN  =      -102.01304721 eV

  energy without entropy =     -102.01109762  energy(sigma->0) =     -102.01207242


--------------------------------------------------------------------------------------------------------




----------------------------------------- Iteration    1(  14)  ---------------------------------------


    POTLOK:  cpu time    0.0270: real time    0.0269
    SETDIJ:  cpu time    0.0070: real time    0.0073
     EDDAV:  cpu time    3.9854: real time    3.9911
       DOS:  cpu time    0.0010: real time    0.0012
    CHARGE:  cpu time    0.1350: real time    0.1345
    MIXING:  cpu time    0.0030: real time    0.0031
    --------------------------------------------
      LOOP:  cpu time    4.1584: real time    4.1668

 eigenvalue-minimisations  :  1560
 total energy-change (2. order) : 0.8156236E-01  (-0.3634111E+00)
 number of electron     159.9999946 magnetization 
 augmentation part       31.6328966 magnetization 

 Broyden mixing:
  rms(total) = 0.16988E+01    rms(broyden)= 0.16960E+01
  rms(prec ) = 0.25521E+01
  weight for this iteration     100.00

 eigenvalues of (default mixing * dielectric matrix)
  average eigenvalue GAMMA=   0.5640
  2.1372  0.6666  0.6666  0.3654  0.3654  0.2910  0.2910  0.1805  0.1127

 Free energy of the ion-electron system (eV)
  ---------------------------------------------------
  alpha Z        PSCENC =       389.01631868
  Ewald energy   TEWEN  =     -3797.06210248
  -Hartree energ DENC   =    -10763.99869164
  -exchange      EXHF   =         0.00000000
  -V(xc)+E(xc)   XCENC  =       769.86600856
  PAW double counting   =     18712.73168337   -18817.08127146
  entropy T*S    EENTRO =        -0.00004541
  eigenvalues    EBANDS =     -2685.26248572
  atomic energy  EATOM  =     16089.85910124
  Solvation  Ediel_sol  =         0.00000000
  ---------------------------------------------------
  free energy    TOTEN  =      -101.93148485 eV

  energy without entropy =     -101.93143944  energy(sigma->0) =     -101.93146215


--------------------------------------------------------------------------------------------------------




----------------------------------------- Iteration    1(  15)  ---------------------------------------


    POTLOK:  cpu time    0.0270: real time    0.0270
    SETDIJ:  cpu time    0.0070: real time    0.0074
     EDDAV:  cpu time    3.8664: real time    3.8680
       DOS:  cpu time    0.0010: real time    0.0013
    CHARGE:  cpu time    0.1310: real time    0.1302
    MIXING:  cpu time    0.0030: real time    0.0033
    --------------------------------------------
      LOOP:  cpu time    4.0354: real time    4.0405

 eigenvalue-minimisations  :  1504
 total energy-change (2. order) : 0.2767075E+00  (-0.7766065E-01)
 number of electron     159.9999957 magnetization 
 augmentation part       32.1860503 magnetization 

 Broyden mixing:
  rms(total) = 0.13803E+01    rms(broyden)= 0.13778E+01
  rms(prec ) = 0.18786E+01
  weight for this iteration     100.00

 eigenvalues of (default mixing * dielectric matrix)
  average eigenvalue GAMMA=   0.5392
  1.9701  0.7537  0.7537  0.4630  0.4630  0.2579  0.2579  0.2252  0.1497  0.0978

 Free energy of the ion-electron system (eV)
  ---------------------------------------------------
  alpha Z        PSCENC =       389.01631868
  Ewald energy   TEWEN  =     -3797.06210248
  -Hartree energ DENC   =    -10755.04299757
  -exchange      EXHF   =         0.00000000
  -V(xc)+E(xc)   XCENC  =       769.61934329
  PAW double counting   =     18698.44180419   -18802.61678581
  entropy T*S    EENTRO =        -0.00004190
  eigenvalues    EBANDS =     -2693.86941703
  atomic energy  EATOM  =     16089.85910124
  Solvation  Ediel_sol  =         0.00000000
  ---------------------------------------------------
  free energy    TOTEN  =      -101.65477740 eV

  energy without entropy =     -101.65473550  energy(sigma->0) =     -101.65475645


--------------------------------------------------------------------------------------------------------




----------------------------------------- Iteration    1(  16)  ---------------------------------------


    POTLOK:  cpu time    0.0270: real time    0.0269
    SETDIJ:  cpu time    0.0070: real time    0.0073
     EDDAV:  cpu time    3.9784: real time    3.9797
       DOS:  cpu time    0.0010: real time    0.0015
    CHARGE:  cpu time    0.1320: real time    0.1314
    MIXING:  cpu time    0.0030: real time    0.0034
    --------------------------------------------
      LOOP:  cpu time    4.1494: real time    4.1536

 eigenvalue-minimisations  :  1560
 total energy-change (2. order) : 0.8195179E-01  (-0.5755874E-01)
 number of electron     159.9999964 magnetization 
 augmentation part       32.1418916 magnetization 

 Broyden mixing:
  rms(total) = 0.12268E+01    rms(broyden)= 0.12256E+01
  rms(prec ) = 0.17233E+01
  weight for this iteration     100.00

 eigenvalues of (default mixing * dielectric matrix)
  average eigenvalue GAMMA=   0.5371
  1.6776  1.0833  0.7632  0.5246  0.5246  0.3054  0.3054  0.2273  0.2273  0.1639
  0.1050

 Free energy of the ion-electron system (eV)
  ---------------------------------------------------
  alpha Z        PSCENC =       389.01631868
  Ewald energy   TEWEN  =     -3797.06210248
  -Hartree energ DENC   =    -10750.44849312
  -exchange      EXHF   =         0.00000000
  -V(xc)+E(xc)   XCENC  =       769.41811468
  PAW double counting   =     18622.90332788   -18726.62924907
  entropy T*S    EENTRO =        -0.00326053
  eigenvalues    EBANDS =     -2698.62658288
  atomic energy  EATOM  =     16089.85910124
  Solvation  Ediel_sol  =         0.00000000
  ---------------------------------------------------
  free energy    TOTEN  =      -101.57282560 eV

  energy without entropy =     -101.56956507  energy(sigma->0) =     -101.57119534


--------------------------------------------------------------------------------------------------------




----------------------------------------- Iteration    1(  17)  ---------------------------------------


    POTLOK:  cpu time    0.0270: real time    0.0270
    SETDIJ:  cpu time    0.0070: real time    0.0073
     EDDAV:  cpu time    4.0424: real time    4.0456
       DOS:  cpu time    0.0010: real time    0.0011
    CHARGE:  cpu time    0.1340: real time    0.1338
    MIXING:  cpu time    0.0030: real time    0.0036
    --------------------------------------------
      LOOP:  cpu time    4.2144: real time    4.2216

 eigenvalue-minimisations  :  1592
 total energy-change (2. order) : 0.5372020E+00  (-0.9566606E-01)
 number of electron     159.9999959 magnetization 
 augmentation part       32.0534636 magnetization 

 Broyden mixing:
  rms(total) = 0.10132E+01    rms(broyden)= 0.10119E+01
  rms(prec ) = 0.13779E+01
  weight for this iteration     100.00

 eigenvalues of (default mixing * dielectric matrix)
  average eigenvalue GAMMA=   0.6036
  1.8906  1.8906  0.6319  0.6319  0.5044  0.3360  0.3360  0.2624  0.2624  0.2403
  0.1516  0.1050

 Free energy of the ion-electron system (eV)
  ---------------------------------------------------
  alpha Z        PSCENC =       389.01631868
  Ewald energy   TEWEN  =     -3797.06210248
  -Hartree energ DENC   =    -10751.24892356
  -exchange      EXHF   =         0.00000000
  -V(xc)+E(xc)   XCENC  =       769.37523916
  PAW double counting   =     18581.56803528   -18684.68265883
  entropy T*S    EENTRO =        -0.00000421
  eigenvalues    EBANDS =     -2697.86062888
  atomic energy  EATOM  =     16089.85910124
  Solvation  Ediel_sol  =         0.00000000
  ---------------------------------------------------
  free energy    TOTEN  =      -101.03562360 eV

  energy without entropy =     -101.03561939  energy(sigma->0) =     -101.03562149


--------------------------------------------------------------------------------------------------------




----------------------------------------- Iteration    1(  18)  ---------------------------------------


    POTLOK:  cpu time    0.0270: real time    0.0270
    SETDIJ:  cpu time    0.0080: real time    0.0073
     EDDAV:  cpu time    3.8504: real time    3.8524
       DOS:  cpu time    0.0010: real time    0.0014
    CHARGE:  cpu time    0.1280: real time    0.1281
    MIXING:  cpu time    0.0040: real time    0.0038
    --------------------------------------------
      LOOP:  cpu time    4.0184: real time    4.0231

 eigenvalue-minimisations  :  1496
 total energy-change (2. order) :-0.4305563E-01  (-0.2458529E-01)
 number of electron     159.9999965 magnetization 
 augmentation part       31.8490570 magnetization 

 Broyden mixing:
  rms(total) = 0.10772E+01    rms(broyden)= 0.10748E+01
  rms(prec ) = 0.15900E+01
  weight for this iteration     100.00

 eigenvalues of (default mixing * dielectric matrix)
  average eigenvalue GAMMA=   0.6129
  2.0069  2.0069  0.9696  0.5171  0.5171  0.3526  0.3526  0.2785  0.2785  0.2167
  0.2167  0.1498  0.1052

 Free energy of the ion-electron system (eV)
  ---------------------------------------------------
  alpha Z        PSCENC =       389.01631868
  Ewald energy   TEWEN  =     -3797.06210248
  -Hartree energ DENC   =    -10750.83988172
  -exchange      EXHF   =         0.00000000
  -V(xc)+E(xc)   XCENC  =       769.31751681
  PAW double counting   =     18525.95727169   -18628.43891266
  entropy T*S    EENTRO =        -0.00019675
  eigenvalues    EBANDS =     -2698.88779405
  atomic energy  EATOM  =     16089.85910124
  Solvation  Ediel_sol  =         0.00000000
  ---------------------------------------------------
  free energy    TOTEN  =      -101.07867923 eV

  energy without entropy =     -101.07848248  energy(sigma->0) =     -101.07858086


--------------------------------------------------------------------------------------------------------




----------------------------------------- Iteration    1(  19)  ---------------------------------------


    POTLOK:  cpu time    0.0350: real time    0.0344
    SETDIJ:  cpu time    0.0070: real time    0.0073
     EDDAV:  cpu time    3.8934: real time    3.8955
       DOS:  cpu time    0.0020: real time    0.0015
    CHARGE:  cpu time    0.1300: real time    0.1300
    MIXING:  cpu time    0.0040: real time    0.0042
    --------------------------------------------
      LOOP:  cpu time    4.0714: real time    4.0765

 eigenvalue-minimisations  :  1504
 total energy-change (2. order) : 0.8108785E-01  (-0.2150115E-01)
 number of electron     159.9999959 magnetization 
 augmentation part       32.1167219 magnetization 

 Broyden mixing:
  rms(total) = 0.11269E+01    rms(broyden)= 0.11247E+01
  rms(prec ) = 0.16290E+01
  weight for this iteration     100.00

 eigenvalues of (default mixing * dielectric matrix)
  average eigenvalue GAMMA=   0.6055
  2.0412  2.0412  0.7724  0.7724  0.4485  0.4485  0.3768  0.3330  0.3330  0.2424
  0.2424  0.1792  0.1408  0.1053

 Free energy of the ion-electron system (eV)
  ---------------------------------------------------
  alpha Z        PSCENC =       389.01631868
  Ewald energy   TEWEN  =     -3797.06210248
  -Hartree energ DENC   =    -10751.66485272
  -exchange      EXHF   =         0.00000000
  -V(xc)+E(xc)   XCENC  =       769.27760320
  PAW double counting   =     18562.10895395   -18664.53768972
  entropy T*S    EENTRO =        -0.00173104
  eigenvalues    EBANDS =     -2697.99319249
  atomic energy  EATOM  =     16089.85910124
  Solvation  Ediel_sol  =         0.00000000
  ---------------------------------------------------
  free energy    TOTEN  =      -100.99759138 eV

  energy without entropy =     -100.99586034  energy(sigma->0) =     -100.99672586


--------------------------------------------------------------------------------------------------------




----------------------------------------- Iteration    1(  20)  ---------------------------------------


    POTLOK:  cpu time    0.0270: real time    0.0271
    SETDIJ:  cpu time    0.0080: real time    0.0073
     EDDAV:  cpu time    3.9074: real time    3.9124
       DOS:  cpu time    0.0010: real time    0.0015
    CHARGE:  cpu time    0.1400: real time    0.1402
    MIXING:  cpu time    0.0050: real time    0.0043
    --------------------------------------------
      LOOP:  cpu time    4.0884: real time    4.0962

 eigenvalue-minimisations  :  1512
 total energy-change (2. order) : 0.1641577E+00  (-0.1531802E-01)
 number of electron     159.9999963 magnetization 
 augmentation part       32.1670887 magnetization 

 Broyden mixing:
  rms(total) = 0.47764E+00    rms(broyden)= 0.47534E+00
  rms(prec ) = 0.62705E+00
  weight for this iteration     100.00

 eigenvalues of (default mixing * dielectric matrix)
  average eigenvalue GAMMA=   0.6383
  2.1768  2.1768  1.2512  0.7799  0.4944  0.4944  0.4548  0.2874  0.2874  0.2643
  0.2643  0.2105  0.1857  0.1413  0.1053

 Free energy of the ion-electron system (eV)
  ---------------------------------------------------
  alpha Z        PSCENC =       389.01631868
  Ewald energy   TEWEN  =     -3797.06210248
  -Hartree energ DENC   =    -10750.83114537
  -exchange      EXHF   =         0.00000000
  -V(xc)+E(xc)   XCENC  =       769.22034697
  PAW double counting   =     18565.07729921   -18667.40220584
  entropy T*S    EENTRO =        -0.00282845
  eigenvalues    EBANDS =     -2698.70821770
  atomic energy  EATOM  =     16089.85910124
  Solvation  Ediel_sol  =         0.00000000
  ---------------------------------------------------
  free energy    TOTEN  =      -100.83343373 eV

  energy without entropy =     -100.83060528  energy(sigma->0) =     -100.83201950


--------------------------------------------------------------------------------------------------------




----------------------------------------- Iteration    1(  21)  ---------------------------------------


    POTLOK:  cpu time    0.0270: real time    0.0271
    SETDIJ:  cpu time    0.0080: real time    0.0074
     EDDAV:  cpu time    3.8904: real time    3.8975
       DOS:  cpu time    0.0010: real time    0.0014
    CHARGE:  cpu time    0.1300: real time    0.1294
    MIXING:  cpu time    0.0040: real time    0.0046
    --------------------------------------------
      LOOP:  cpu time    4.0614: real time    4.0719

 eigenvalue-minimisations  :  1504
 total energy-change (2. order) : 0.6505152E-01  (-0.5126369E-02)
 number of electron     159.9999961 magnetization 
 augmentation part       32.0417644 magnetization 

 Broyden mixing:
  rms(total) = 0.23976E+00    rms(broyden)= 0.23881E+00
  rms(prec ) = 0.31255E+00
  weight for this iteration     100.00

 eigenvalues of (default mixing * dielectric matrix)
  average eigenvalue GAMMA=   0.6512
  2.1490  2.1490  1.2539  1.2539  0.5030  0.5030  0.4276  0.4276  0.2826  0.2826
  0.2809  0.2372  0.2372  0.1845  0.1413  0.1053

 Free energy of the ion-electron system (eV)
  ---------------------------------------------------
  alpha Z        PSCENC =       389.01631868
  Ewald energy   TEWEN  =     -3797.06210248
  -Hartree energ DENC   =    -10751.26976617
  -exchange      EXHF   =         0.00000000
  -V(xc)+E(xc)   XCENC  =       769.14174802
  PAW double counting   =     18568.71153877   -18670.73883167
  entropy T*S    EENTRO =        -0.00211697
  eigenvalues    EBANDS =     -2698.42427161
  atomic energy  EATOM  =     16089.85910124
  Solvation  Ediel_sol  =         0.00000000
  ---------------------------------------------------
  free energy    TOTEN  =      -100.76838220 eV

  energy without entropy =     -100.76626523  energy(sigma->0) =     -100.76732372


--------------------------------------------------------------------------------------------------------




----------------------------------------- Iteration    1(  22)  ---------------------------------------


    POTLOK:  cpu time    0.0270: real time    0.0270
    SETDIJ:  cpu time    0.0080: real time    0.0074
     EDDAV:  cpu time    4.3713: real time    4.3751
       DOS:  cpu time    0.0020: real time    0.0014
    CHARGE:  cpu time    0.1290: real time    0.1293
    MIXING:  cpu time    0.0050: real time    0.0049
    --------------------------------------------
      LOOP:  cpu time    4.5423: real time    4.5483

 eigenvalue-minimisations  :  1728
 total energy-change (2. order) :-0.7342213E-02  (-0.1971692E-02)
 number of electron     159.9999962 magnetization 
 augmentation part       32.1131729 magnetization 

 Broyden mixing:
  rms(total) = 0.26979E+00    rms(broyden)= 0.26929E+00
  rms(prec ) = 0.35949E+00
  weight for this iteration     100.00

 eigenvalues of (default mixing * dielectric matrix)
  average eigenvalue GAMMA=   0.6530
  1.9862  1.9489  1.9489  1.1526  0.5507  0.5507  0.4254  0.4254  0.3703  0.2877
  0.2877  0.2557  0.2557  0.2171  0.1911  0.1053  0.1414

 Free energy of the ion-electron system (eV)
  ---------------------------------------------------
  alpha Z        PSCENC =       389.01631868
  Ewald energy   TEWEN  =     -3797.06210248
  -Hartree energ DENC   =    -10752.43751270
  -exchange      EXHF   =         0.00000000
  -V(xc)+E(xc)   XCENC  =       769.16737419
  PAW double counting   =     18575.05916519   -18677.08954420
  entropy T*S    EENTRO =        -0.00271439
  eigenvalues    EBANDS =     -2697.28580996
  atomic energy  EATOM  =     16089.85910124
  Solvation  Ediel_sol  =         0.00000000
  ---------------------------------------------------
  free energy    TOTEN  =      -100.77572442 eV

  energy without entropy =     -100.77301003  energy(sigma->0) =     -100.77436722


--------------------------------------------------------------------------------------------------------




----------------------------------------- Iteration    1(  23)  ---------------------------------------


    POTLOK:  cpu time    0.0350: real time    0.0347
    SETDIJ:  cpu time    0.0070: real time    0.0073
     EDDAV:  cpu time    4.1954: real time    4.1972
       DOS:  cpu time    0.0010: real time    0.0015
    CHARGE:  cpu time    0.1310: real time    0.1307
    MIXING:  cpu time    0.0050: real time    0.0051
    --------------------------------------------
      LOOP:  cpu time    4.3743: real time    4.3798

 eigenvalue-minimisations  :  1640
 total energy-change (2. order) :-0.1613937E-01  (-0.2131074E-02)
 number of electron     159.9999966 magnetization 
 augmentation part       32.1247569 magnetization 

 Broyden mixing:
  rms(total) = 0.38170E+00    rms(broyden)= 0.38130E+00
  rms(prec ) = 0.54350E+00
  weight for this iteration     100.00

 eigenvalues of (default mixing * dielectric matrix)
  average eigenvalue GAMMA=   0.6637
  2.1387  2.1387  1.9696  1.1828  0.6202  0.6202  0.4735  0.4324  0.4324  0.2746
  0.2746  0.2578  0.2578  0.2192  0.2192  0.1892  0.1053  0.1414

 Free energy of the ion-electron system (eV)
  ---------------------------------------------------
  alpha Z        PSCENC =       389.01631868
  Ewald energy   TEWEN  =     -3797.06210248
  -Hartree energ DENC   =    -10752.42802607
  -exchange      EXHF   =         0.00000000
  -V(xc)+E(xc)   XCENC  =       769.16020758
  PAW double counting   =     18576.85369788   -18678.86691143
  entropy T*S    EENTRO =        -0.00362143
  eigenvalues    EBANDS =     -2697.32052775
  atomic energy  EATOM  =     16089.85910124
  Solvation  Ediel_sol  =         0.00000000
  ---------------------------------------------------
  free energy    TOTEN  =      -100.79186378 eV

  energy without entropy =     -100.78824235  energy(sigma->0) =     -100.79005307


--------------------------------------------------------------------------------------------------------




----------------------------------------- Iteration    1(  24)  ---------------------------------------


    POTLOK:  cpu time    0.0280: real time    0.0272
    SETDIJ:  cpu time    0.0070: real time    0.0073
     EDDAV:  cpu time    3.9474: real time    3.9500
       DOS:  cpu time    0.0020: real time    0.0014
    CHARGE:  cpu time    0.1270: real time    0.1275
    MIXING:  cpu time    0.0060: real time    0.0053
    --------------------------------------------
      LOOP:  cpu time    4.1184: real time    4.1219

 eigenvalue-minimisations  :  1520
 total energy-change (2. order) : 0.2139625E-01  (-0.3437415E-02)
 number of electron     159.9999965 magnetization 
 augmentation part       32.0100265 magnetization 

 Broyden mixing:
  rms(total) = 0.35049E+00    rms(broyden)= 0.35004E+00
  rms(prec ) = 0.52040E+00
  weight for this iteration     100.00

 eigenvalues of (default mixing * dielectric matrix)
  average eigenvalue GAMMA=   0.6463
  2.1257  2.1257  2.0591  1.2453  0.6380  0.6380  0.4354  0.4354  0.3788  0.3251
  0.2724  0.2724  0.2288  0.2288  0.1053  0.2279  0.2141  0.1826  0.1413

 Free energy of the ion-electron system (eV)
  ---------------------------------------------------
  alpha Z        PSCENC =       389.01631868
  Ewald energy   TEWEN  =     -3797.06210248
  -Hartree energ DENC   =    -10753.70995990
  -exchange      EXHF   =         0.00000000
  -V(xc)+E(xc)   XCENC  =       769.17938133
  PAW double counting   =     18571.58894185   -18673.51512832
  entropy T*S    EENTRO =        -0.00416414
  eigenvalues    EBANDS =     -2696.12285581
  atomic energy  EATOM  =     16089.85910124
  Solvation  Ediel_sol  =         0.00000000
  ---------------------------------------------------
  free energy    TOTEN  =      -100.77046753 eV

  energy without entropy =     -100.76630339  energy(sigma->0) =     -100.76838546


--------------------------------------------------------------------------------------------------------




----------------------------------------- Iteration    1(  25)  ---------------------------------------


    POTLOK:  cpu time    0.0410: real time    0.0412
    SETDIJ:  cpu time    0.0070: real time    0.0072
     EDDAV:  cpu time    3.5465: real time    3.5495
       DOS:  cpu time    0.0020: real time    0.0015
    CHARGE:  cpu time    0.1310: real time    0.1306
    MIXING:  cpu time    0.0050: real time    0.0056
    --------------------------------------------
      LOOP:  cpu time    3.7324: real time    3.7389

 eigenvalue-minimisations  :  1336
 total energy-change (2. order) : 0.9241713E-02  (-0.8172434E-03)
 number of electron     159.9999964 magnetization 
 augmentation part       32.0272800 magnetization 

 Broyden mixing:
  rms(total) = 0.14925E+00    rms(broyden)= 0.14852E+00
  rms(prec ) = 0.21414E+00
  weight for this iteration     100.00

 eigenvalues of (default mixing * dielectric matrix)
  average eigenvalue GAMMA=   0.6638
  2.3486  2.1634  2.1634  1.2949  0.7415  0.5121  0.5121  0.5257  0.3834  0.3640
  0.3640  0.2808  0.2808  0.2498  0.2498  0.1053  0.1413  0.2052  0.2052  0.1840

 Free energy of the ion-electron system (eV)
  ---------------------------------------------------
  alpha Z        PSCENC =       389.01631868
  Ewald energy   TEWEN  =     -3797.06210248
  -Hartree energ DENC   =    -10753.73643770
  -exchange      EXHF   =         0.00000000
  -V(xc)+E(xc)   XCENC  =       769.16470632
  PAW double counting   =     18570.90331040   -18672.78780283
  entropy T*S    EENTRO =        -0.00326260
  eigenvalues    EBANDS =     -2696.11505684
  atomic energy  EATOM  =     16089.85910124
  Solvation  Ediel_sol  =         0.00000000
  ---------------------------------------------------
  free energy    TOTEN  =      -100.76122581 eV

  energy without entropy =     -100.75796321  energy(sigma->0) =     -100.75959451


--------------------------------------------------------------------------------------------------------




----------------------------------------- Iteration    1(  26)  ---------------------------------------


    POTLOK:  cpu time    0.0270: real time    0.0270
    SETDIJ:  cpu time    0.0080: real time    0.0073
     EDDAV:  cpu time    3.4025: real time    3.4043
       DOS:  cpu time    0.0010: real time    0.0013
    CHARGE:  cpu time    0.1300: real time    0.1304
    MIXING:  cpu time    0.0060: real time    0.0059
    --------------------------------------------
      LOOP:  cpu time    3.5745: real time    3.5794

 eigenvalue-minimisations  :  1248
 total energy-change (2. order) : 0.3846199E-02  (-0.5280140E-03)
 number of electron     159.9999961 magnetization 
 augmentation part       32.0152561 magnetization 

 Broyden mixing:
  rms(total) = 0.80294E-01    rms(broyden)= 0.79634E-01
  rms(prec ) = 0.11670E+00
  weight for this iteration     100.00

 eigenvalues of (default mixing * dielectric matrix)
  average eigenvalue GAMMA=   0.6693
  2.7846  1.9569  1.9569  1.5412  0.8110  0.5308  0.5308  0.5220  0.4043  0.4043
  0.4307  0.2808  0.2808  0.2822  0.2488  0.2488  0.1053  0.1413  0.2110  0.2034
  0.1788

 Free energy of the ion-electron system (eV)
  ---------------------------------------------------
  alpha Z        PSCENC =       389.01631868
  Ewald energy   TEWEN  =     -3797.06210248
  -Hartree energ DENC   =    -10754.15353892
  -exchange      EXHF   =         0.00000000
  -V(xc)+E(xc)   XCENC  =       769.16093877
  PAW double counting   =     18568.59360003   -18670.43894213
  entropy T*S    EENTRO =        -0.00216831
  eigenvalues    EBANDS =     -2695.73058650
  atomic energy  EATOM  =     16089.85910124
  Solvation  Ediel_sol  =         0.00000000
  ---------------------------------------------------
  free energy    TOTEN  =      -100.75737962 eV

  energy without entropy =     -100.75521130  energy(sigma->0) =     -100.75629546


--------------------------------------------------------------------------------------------------------




----------------------------------------- Iteration    1(  27)  ---------------------------------------


    POTLOK:  cpu time    0.0270: real time    0.0271
    SETDIJ:  cpu time    0.0070: real time    0.0073
     EDDAV:  cpu time    3.0205: real time    3.0216
       DOS:  cpu time    0.0010: real time    0.0015
    CHARGE:  cpu time    0.1290: real time    0.1292
    MIXING:  cpu time    0.0060: real time    0.0061
    --------------------------------------------
      LOOP:  cpu time    3.1945: real time    3.1962

 eigenvalue-minimisations  :  1064
 total energy-change (2. order) : 0.7040376E-03  (-0.1621638E-03)
 number of electron     159.9999963 magnetization 
 augmentation part       32.0000763 magnetization 

 Broyden mixing:
  rms(total) = 0.47270E-01    rms(broyden)= 0.47026E-01
  rms(prec ) = 0.66879E-01
  weight for this iteration     100.00

 eigenvalues of (default mixing * dielectric matrix)
  average eigenvalue GAMMA=   0.6785
  2.3617  2.3617  2.3027  1.1917  1.1917  0.6253  0.6253  0.4318  0.4318  0.4445
  0.3848  0.3848  0.2792  0.2792  0.2970  0.2478  0.2478  0.1053  0.1413  0.2048
  0.2048  0.1817

 Free energy of the ion-electron system (eV)
  ---------------------------------------------------
  alpha Z        PSCENC =       389.01631868
  Ewald energy   TEWEN  =     -3797.06210248
  -Hartree energ DENC   =    -10754.10402427
  -exchange      EXHF   =         0.00000000
  -V(xc)+E(xc)   XCENC  =       769.15040130
  PAW double counting   =     18566.02771769   -18667.81991298
  entropy T*S    EENTRO =        -0.00292284
  eigenvalues    EBANDS =     -2695.82125191
[...]
     66      -2.2259      2.00000
     67      -2.0275      2.00000
     68      -1.7707      2.00000
     69      -1.5915      2.00000
     70      -1.2829      2.00000
     71      -0.9542      2.00000
     72      -0.6274      2.00000
     73      -0.4067      2.00000
     74      -0.2346      2.00000
     75       0.1049      2.00000
     76       0.5183      2.00000
     77       0.7163      2.00000
     78       0.9943      2.00000
     79       1.2861      2.00000
     80       1.3481      2.00000
     81       1.3824      2.00000
     82       1.8310      0.00000
     83       2.2751      0.00000
     84       2.4165      0.00000
     85       2.7168      0.00000
     86       2.8817      0.00000
     87       3.0090      0.00000
     88       3.4419      0.00000
     89       3.7074      0.00000
     90       3.8621      0.00000
     91       4.0930      0.00000
     92       4.1933      0.00000
     93       4.3228      0.00000
     94       4.3926      0.00000
     95       4.6229      0.00000
     96       4.7774      0.00000

 k-point     5 :       0.0000    0.2500    0.0000
  band No.  band energies     occupation 
      1     -62.9651      2.00000
      2     -62.8974      2.00000
      3     -62.7052      2.00000
      4     -62.6920      2.00000
      5     -37.6650      2.00000
      6     -37.6191      2.00000
      7     -37.5657      2.00000
      8     -37.5155      2.00000
      9     -37.2746      2.00000
     10     -37.2231      2.00000
     11     -37.1352      2.00000
     12     -37.0521      2.00000
     13     -36.9921      2.00000
     14     -36.9322      2.00000
     15     -36.7263      2.00000
     16     -36.6629      2.00000
     17     -28.3103      2.00000
     18     -27.8279      2.00000
     19     -27.5588      2.00000
     20     -27.3060      2.00000
     21     -21.9967      2.00000
     22     -20.5931      2.00000
     23     -18.0337      2.00000
     24     -17.5478      2.00000
     25     -17.4308      2.00000
     26     -16.4324      2.00000
     27     -15.8361      2.00000
     28     -15.6425      2.00000
     29     -15.1937      2.00000
     30     -15.0984      2.00000
     31     -13.7025      2.00000
     32     -12.9973      2.00000
     33     -12.2117      2.00000
     34     -12.0098      2.00000
     35     -11.9005      2.00000
     36     -11.8091      2.00000
     37     -11.5695      2.00000
     38     -11.4792      2.00000
     39     -11.3992      2.00000
     40     -11.2812      2.00000
     41     -11.2226      2.00000
     42     -11.0602      2.00000
     43     -10.9642      2.00000
     44     -10.8349      2.00000
     45      -5.8093      2.00000
     46      -5.4395      2.00000
     47      -5.2884      2.00000
     48      -5.2489      2.00000
     49      -5.0468      2.00000
     50      -4.6395      2.00000
     51      -4.4402      2.00000
     52      -4.2077      2.00000
     53      -4.1087      2.00000
     54      -4.0232      2.00000
     55      -3.9724      2.00000
     56      -3.7713      2.00000
     57      -3.6140      2.00000
     58      -3.5409      2.00000
     59      -3.4563      2.00000
     60      -3.2970      2.00000
     61      -2.9575      2.00000
     62      -2.7444      2.00000
     63      -2.7354      2.00000
     64      -2.5306      2.00000
     65      -2.4196      2.00000
     66      -2.2322      2.00000
     67      -2.1400      2.00000
     68      -1.8120      2.00000
     69      -1.5261      2.00000
     70      -1.3259      2.00000
     71      -0.8438      2.00000
     72      -0.6533      2.00000
     73      -0.4055      2.00000
     74      -0.2501      2.00000
     75       0.0797      2.00000
     76       0.5172      2.00000
     77       0.7876      2.00000
     78       0.9702      2.00000
     79       1.3261      2.00000
     80       1.4872      0.00000
     81       1.5493      0.00000
     82       1.6905      0.00000
     83       2.2146      0.00000
     84       2.4047      0.00000
     85       2.7303      0.00000
     86       2.8034      0.00000
     87       3.3439      0.00000
     88       3.4017      0.00000
     89       3.6204      0.00000
     90       3.8444      0.00000
     91       4.0337      0.00000
     92       4.1903      0.00000
     93       4.3432      0.00000
     94       4.4498      0.00000
     95       4.6851      0.00000
     96       4.8615      0.00000

 k-point     6 :       0.2500    0.0000    0.0000
  band No.  band energies     occupation 
      1     -62.9651      2.00000
      2     -62.8974      2.00000
      3     -62.7043      2.00000
      4     -62.6928      2.00000
      5     -37.6712      2.00000
      6     -37.6168      2.00000
      7     -37.5538      2.00000
      8     -37.5234      2.00000
      9     -37.2734      2.00000
     10     -37.2235      2.00000
     11     -37.1365      2.00000
     12     -37.0402      2.00000
     13     -36.9950      2.00000
     14     -36.9409      2.00000
     15     -36.7263      2.00000
     16     -36.6629      2.00000
     17     -28.3114      2.00000
     18     -27.8251      2.00000
     19     -27.5573      2.00000
     20     -27.3091      2.00000
     21     -21.9959      2.00000
     22     -20.5980      2.00000
     23     -18.0472      2.00000
     24     -17.5736      2.00000
     25     -17.3875      2.00000
     26     -16.3699      2.00000
     27     -15.9238      2.00000
     28     -15.6234      2.00000
     29     -15.1739      2.00000
     30     -15.1049      2.00000
     31     -13.6402      2.00000
     32     -13.0401      2.00000
     33     -12.2346      2.00000
     34     -12.0083      2.00000
     35     -11.9053      2.00000
     36     -11.8502      2.00000
     37     -11.5784      2.00000
     38     -11.4929      2.00000
     39     -11.3622      2.00000
     40     -11.2682      2.00000
     41     -11.2279      2.00000
     42     -11.0481      2.00000
     43     -10.9461      2.00000
     44     -10.8766      2.00000
     45      -5.7384      2.00000
     46      -5.5524      2.00000
     47      -5.2973      2.00000
     48      -5.2926      2.00000
     49      -4.9462      2.00000
     50      -4.6121      2.00000
     51      -4.4237      2.00000
     52      -4.1499      2.00000
     53      -4.1129      2.00000
     54      -3.9932      2.00000
     55      -3.9538      2.00000
     56      -3.8038      2.00000
     57      -3.6100      2.00000
     58      -3.5913      2.00000
     59      -3.4241      2.00000
     60      -3.2911      2.00000
     61      -3.0327      2.00000
     62      -2.7664      2.00000
     63      -2.6661      2.00000
     64      -2.6240      2.00000
     65      -2.4304      2.00000
     66      -2.2236      2.00000
     67      -1.9547      2.00000
     68      -1.8007      2.00000
     69      -1.6032      2.00000
     70      -1.1629      2.00000
     71      -1.0199      2.00000
     72      -0.5652      2.00000
     73      -0.4561      2.00000
     74      -0.2003      2.00000
     75       0.0943      2.00000
     76       0.4677      2.00000
     77       0.7637      2.00000
     78       0.9905      2.00000
     79       1.3260      2.00000
     80       1.3432      2.00000
     81       1.3792      2.00000
     82       1.7378      0.00000
     83       2.2556      0.00000
     84       2.4053      0.00000
     85       2.7775      0.00000
     86       2.8737      0.00000
     87       3.0123      0.00000
     88       3.4287      0.00000
     89       3.7256      0.00000
     90       3.9007      0.00000
     91       4.0757      0.00000
     92       4.2034      0.00000
     93       4.3041      0.00000
     94       4.4475      0.00000
     95       4.6456      0.00000
     96       4.8032      0.00000


--------------------------------------------------------------------------------------------------------


 soft charge-density along one line, spin component           1
         0         1         2         3         4         5         6         7         8         9
 total charge-density along one line
 
 pseudopotential strength for first ion, spin component:           1
-14.883   0.507  -0.001  -0.006  -0.003  -0.001  -0.006  -0.003
  0.507  -2.499  -0.001  -0.011  -0.005  -0.001  -0.011  -0.005
 -0.001  -0.001 -16.531  -0.004  -0.010 -16.308  -0.004  -0.009
 -0.006  -0.011  -0.004 -16.524  -0.003  -0.004 -16.301  -0.003
 -0.003  -0.005  -0.010  -0.003 -16.529  -0.009  -0.003 -16.306
 -0.001  -0.001 -16.308  -0.004  -0.009 -16.080  -0.003  -0.009
 -0.006  -0.011  -0.004 -16.301  -0.003  -0.003 -16.073  -0.003
 -0.003  -0.005  -0.009  -0.003 -16.306  -0.009  -0.003 -16.077
 -0.008  -0.002  -0.004   0.000  -0.002  -0.004   0.000  -0.002
 -0.003  -0.001  -0.009   0.000   0.000  -0.009   0.000   0.000
  0.003   0.001   0.001  -0.010   0.003   0.001  -0.009   0.002
 -0.002  -0.001   0.000  -0.004  -0.009   0.000  -0.004  -0.009
  0.001   0.000   0.000   0.000  -0.005   0.000   0.000  -0.004
 total augmentation occupancy for first ion, spin component:           1
  2.001   0.001  -0.016  -0.160  -0.073   0.016   0.162   0.074   0.005   0.002  -0.002   0.001  -0.001
  0.001   0.422   0.041   0.605   0.259  -0.031  -0.505  -0.214  -0.011  -0.003   0.010   0.001   0.013
 -0.016   0.041   4.155  -0.213  -0.574  -2.233   0.175   0.471   0.114   0.124  -0.013  -0.026  -0.003
 -0.160   0.605  -0.213   4.972   0.025   0.175  -2.957  -0.051  -0.026  -0.002   0.094  -0.059   0.002
 -0.073   0.259  -0.574   0.025   5.006   0.470  -0.051  -3.035   0.019  -0.032  -0.107   0.138   0.029
  0.016  -0.031  -2.233   0.175   0.470   2.314  -0.137  -0.370  -0.095  -0.098   0.009   0.022   0.003
  0.162  -0.505   0.175  -2.957  -0.051  -0.137   2.948   0.077   0.022   0.001  -0.071   0.058  -0.002
  0.074  -0.214   0.471  -0.051  -3.035  -0.370   0.077   3.072  -0.013   0.028   0.091  -0.111  -0.020
  0.005  -0.011   0.114  -0.026   0.019  -0.095   0.022  -0.013   0.015   0.006   0.002  -0.002   0.002
  0.002  -0.003   0.124  -0.002  -0.032  -0.098   0.001   0.028   0.006   0.012  -0.001  -0.001  -0.002
 -0.002   0.010  -0.013   0.094  -0.107   0.009  -0.071   0.091   0.002  -0.001   0.018  -0.006  -0.002
  0.001   0.001  -0.026  -0.059   0.138   0.022   0.058  -0.111  -0.002  -0.001  -0.006   0.015  -0.002
 -0.001   0.013  -0.003   0.002   0.029   0.003  -0.002  -0.020   0.002  -0.002  -0.002  -0.002   0.014


------------------------ aborting loop because EDIFF is reached ----------------------------------------


    CHARGE:  cpu time    0.1280: real time    0.1276
    FORLOC:  cpu time    0.0160: real time    0.0164
    FORNL :  cpu time    2.3116: real time    2.3188
    STRESS:  cpu time    1.8097: real time    1.8171
    FORCOR:  cpu time    0.0470: real time    0.0467
    FORHAR:  cpu time    0.0370: real time    0.0372
    MIXING:  cpu time    0.0030: real time    0.0029
    OFIELD:  cpu time    0.0000: real time    0.0000

  FORCE on cell =-STRESS in cart. coord.  units (eV):
  Direction    XX          YY          ZZ          XY          YZ          ZX
  --------------------------------------------------------------------------------------
  Alpha Z   543.48562   543.48562   543.48562
  Ewald      31.14079  -618.85761 -6072.55516  -143.12620     7.84442  -117.06922
  Hartree  4795.48529  4330.74070  -817.41622   -77.32486   -23.46861  -133.40396
  E(xc)    -774.02559  -774.02774  -774.02713    -0.00131     0.00128     0.00160
  Local   -7151.57809 -6047.39051  4509.40905   208.67866    36.72626   266.24274
  n-local  -620.03606  -627.15926  -624.82479    -2.71231     0.90789     4.25168
  augment   405.64061   407.75624   421.46054     1.71359    -2.88657    -1.61082
  Kinetic  2770.54676  2786.39378  2815.03421    12.78973   -19.48082   -18.51872
  Fock        0.00000     0.00000     0.00000     0.00000     0.00000     0.00000
  -------------------------------------------------------------------------------------
  Total       0.65934     0.94122     0.56613     0.01731    -0.35615    -0.10671
  in kB       3.00947     4.29606     2.58400     0.07900    -1.62558    -0.48705
  external pressure =        3.30 kB  Pullay stress =        0.00 kB


 VOLUME and BASIS-vectors are now :
 -----------------------------------------------------------------------------
  energy-cutoff  :      400.00
  volume of cell :      351.02
      direct lattice vectors                 reciprocal lattice vectors
     5.894744406 -0.200089032 -0.091806270     0.173127811  0.101360295  0.002865924
    -3.093197941  5.283201486  0.004091013     0.006555181  0.193117081  0.000005504
    -0.194078473  0.006259969 11.502702608     0.001379450  0.000740301  0.086958963

  length of vectors
     5.898853755  6.122099981 11.504341482     0.200637389  0.193228304  0.086973054


 FORCES acting on ions
    electron-ion (+dipol)            ewald-force                    non-local-force                 convergence-correction
 -----------------------------------------------------------------------------------------------
   -.261E+02 -.695E+02 -.504E+03   0.241E+02 0.691E+02 0.500E+03   0.198E+01 0.424E+00 0.437E+01   0.412E-02 -.253E-02 -.140E+00
   -.140E+02 -.346E+02 -.520E+03   0.160E+02 0.347E+02 0.515E+03   -.202E+01 -.165E-02 0.421E+01   -.956E-02 -.226E-01 -.138E+00
   0.247E+02 0.193E+02 0.621E+03   -.230E+02 -.192E+02 -.616E+03   -.161E+01 -.197E+00 -.593E+01   0.163E-02 -.123E-01 0.127E+00
   -.275E+02 -.188E+02 0.466E+03   0.264E+02 0.182E+02 -.463E+03   0.120E+01 0.624E+00 -.319E+01   0.531E-02 0.418E-02 0.152E+00
   -.203E+02 -.393E+02 -.116E+03   0.207E+02 0.387E+02 0.118E+03   -.425E+00 0.571E+00 -.122E+01   0.428E-02 -.246E-02 -.252E-01
   0.580E+02 0.265E+01 -.201E+03   -.583E+02 -.163E+01 0.202E+03   0.225E+00 -.980E+00 -.839E+00   -.721E-02 0.515E-02 -.132E-01
   0.468E+02 0.467E+02 0.128E+03   -.481E+02 -.490E+02 -.128E+03   0.135E+01 0.223E+01 0.200E+00   0.131E-01 0.797E-01 0.925E-02
   -.586E+02 0.719E+02 0.448E+02   0.590E+02 -.740E+02 -.459E+02   -.212E+00 0.206E+01 0.981E+00   -.575E-01 -.118E-01 0.500E-01
   0.257E+01 -.293E+01 0.120E+02   -.227E+01 0.276E+01 -.213E+02   -.317E+00 0.186E+00 0.933E+01   0.129E-02 0.730E-01 -.673E-01
   0.165E+02 -.121E+02 -.208E+03   -.162E+02 0.126E+02 0.218E+03   -.161E+00 -.325E+00 -.100E+02   -.661E-01 -.433E-01 0.524E-01
   -.233E+02 0.100E+02 -.991E+02   0.237E+02 -.103E+02 0.101E+03   -.393E+00 0.299E+00 -.230E+01   0.600E-01 -.404E-01 0.103E-01
   0.294E+01 -.223E+03 -.584E+01   -.181E+01 0.258E+03 0.290E+02   -.115E+01 -.352E+02 -.233E+02   0.159E-01 -.289E-01 0.238E-04
   0.312E+02 0.900E+02 -.269E+03   -.315E+02 -.951E+02 0.280E+03   0.334E+00 0.503E+01 -.115E+02   -.877E-02 0.949E-02 -.447E-01
   -.598E+02 0.141E+03 0.439E+03   0.582E+02 -.150E+03 -.453E+03   0.157E+01 0.863E+01 0.133E+02   -.517E-03 0.215E-01 0.616E-01
   0.366E+02 -.590E+02 0.430E+03   -.386E+02 0.369E+02 -.456E+03   0.192E+01 0.221E+02 0.267E+02   0.134E-01 0.274E-01 0.721E-01
   0.125E+03 0.199E+03 0.573E+03   -.131E+03 -.212E+03 -.588E+03   0.674E+01 0.129E+02 0.149E+02   -.483E-02 0.149E-01 0.716E-01
   -.808E+02 0.459E+02 -.608E+03   0.100E+03 -.539E+02 0.634E+03   -.197E+02 0.792E+01 -.265E+02   -.191E-01 0.395E-02 -.109E+00
   0.202E+03 -.114E+03 -.301E+03   -.232E+03 0.127E+03 0.293E+03   0.303E+02 -.126E+02 0.792E+01   0.109E-01 0.131E-02 -.749E-01
   -.971E+02 -.204E+03 0.508E+03   0.108E+03 0.223E+03 -.525E+03   -.105E+02 -.190E+02 0.167E+02   -.140E-02 -.297E-01 0.658E-01
   -.138E+03 0.143E+03 -.394E+03   0.147E+03 -.155E+03 0.406E+03   -.916E+01 0.119E+02 -.121E+02   -.235E-02 0.971E-02 -.554E-01
 -----------------------------------------------------------------------------------------------
   0.428E-01 -.656E+01 -.172E+01   0.568E-13 0.000E+00 0.284E-12   0.587E-02 0.650E+01 0.172E+01   -.474E-01 0.562E-01 0.404E-02
 
 
 POSITION                                       TOTAL-FORCE (eV/Angst)
 -----------------------------------------------------------------------------------
     -1.20451      4.90042      7.80878        -0.017935     -0.009230      0.059685
      4.56869      0.86766      8.37916         0.007291      0.038324     -0.030450
      2.72651      0.84191      3.35458         0.013895     -0.068592     -0.103015
      0.32203      2.83989      2.57626         0.080309      0.026182     -0.029191
     -0.32852      3.50341     11.10994        -0.060295      0.041448     -0.027785
      2.66997      1.57962     11.20109        -0.069462      0.047623     -0.020345
     -0.28259      2.21702      5.58010         0.040137      0.014215      0.023601
      2.55748      3.34394      5.84745         0.080588     -0.116003      0.008868
      2.74773     -0.08071     10.54545        -0.018038      0.091091     -0.011981
     -1.55231      2.63818      0.24843        -0.001812      0.065999     -0.151436
      1.14954      2.53019     11.33583         0.076363     -0.017001      0.067191
      2.86028     -0.14917      5.52386        -0.005868     -0.196406     -0.103531
     -1.81499      2.68026      6.46311         0.054945     -0.054761      0.021875
      1.53051      2.41044      4.80543        -0.084396     -0.021018     -0.014430
     -0.27030      4.04179      4.76701        -0.005625      0.118039      0.165971
     -0.86287      1.46136      4.22571         0.020099     -0.039172     -0.041786
      2.33044      3.66221      7.73055        -0.092572     -0.032851      0.078410
      1.16894      4.03283      6.94260         0.027397      0.047394      0.116961
     -2.71814      4.61768      4.93085         0.003542      0.016871     -0.004274
      0.35208      1.27352      6.79739        -0.048565      0.047848     -0.004338
 -----------------------------------------------------------------------------------
    total drift:                                0.001271      0.000010     -0.002017


--------------------------------------------------------------------------------------------------------



  FREE ENERGIE OF THE ION-ELECTRON SYSTEM (eV)
  ---------------------------------------------------
  free  energy   TOTEN  =      -145.02223708 eV

  energy  without entropy=     -145.02047383  energy(sigma->0) =     -145.02135546
 
 d Force = 0.1256436E-02[ 0.506E-03, 0.201E-02]  d Energy =-0.1425952E-03 0.140E-02
 d Force =-0.1512513E+01[-0.152E+01,-0.151E+01]  d Ewald  = 0.1424977E+01-0.294E+01


--------------------------------------------------------------------------------------------------------


    POTLOK:  cpu time    0.0370: real time    0.0365


--------------------------------------------------------------------------------------------------------




--------------------------------------------------------------------------------------------------------


  
 reached required accuracy - stopping structural energy minimisation
 writing wavefunctions
     LOOP+:  cpu time   32.5341: real time   33.1618
    4ORBIT:  cpu time    0.0000: real time    0.0000

 total amount of memory used by VASP on root node    56887. kBytes
========================================================================

   base      :      30000. kBytes
   nonl-proj :       6534. kBytes
   fftplans  :       3473. kBytes
   grid      :       6205. kBytes
   one-center:         77. kBytes
   wavefun   :      10598. kBytes
 
  
  
 General timing and accounting informations for this job:
 ========================================================
  
                  Total CPU time used (sec):     3326.547
                            User time (sec):     3253.363
                          System time (sec):       73.184
                         Elapsed time (sec):     3354.654
  
                   Maximum memory used (kb):       63704.
                   Average memory used (kb):           0.
  
                          Minor page faults:     45593628
                          Major page faults:           50
                 Voluntary context switches:        38698
