 vasp.5.4.1 24Jun15 (build Dec 01 2015 13:38:29) complex                        
  
 executed on           IFC91_ompi date 2016.11.11  11:53:27
 running on    8 total cores
 distrk:  each k-point on    8 cores,    1 groups
 distr:  one band on NCORES_PER_BAND=   4 cores,    2 groups


--------------------------------------------------------------------------------------------------------


 INCAR:
 POTCAR:    PAW K_sv 22Nov2003                    
 POTCAR:    PAW V_sv 02Aug2007                    
 POTCAR:    PAW O 22Mar2012                       
 POTCAR:    PAW K_sv 22Nov2003                    
   VRHFIN =K:  3s3p4s1d                                                         
   LEXCH  = CA                                                                  
   EATOM  =   775.5499 eV,   57.0013 Ry                                         
                                                                                
   TITEL  = PAW K_sv 22Nov2003                                                  
   LULTRA =        F    use ultrasoft PP ?                                      
   IUNSCR =        1    unscreen: 0-lin 1-nonlin 2-no                           
   RPACOR =    2.200    partial core radius                                     
   POMASS =   39.098; ZVAL   =    9.000    mass and valenz                      
   RCORE  =    2.300    outmost cutoff radius                                   
   RWIGS  =    3.000; RWIGS  =    1.588    wigner-seitz radius (au A)           
   ENMAX  =  259.279; ENMIN  =  194.459 eV                                      
   RCLOC  =    2.005    cutoff for local pot                                    
   LCOR   =        T    correct aug charges                                     
   LPAW   =        T    paw PP                                                  
   EAUG   =  427.853                                                            
   DEXC   =    0.000                                                            
   RMAX   =    2.358    core radius for proj-oper                               
   RAUG   =    1.300    factor for augmentation sphere                          
   RDEP   =    2.372    radius for radial grids                                 
   RDEPT  =    2.002    core radius for aug-charge                              
                                                                                
   Atomic configuration                                                         
    7 entries                                                                   
     n  l   j            E        occ.                                          
     1  0  0.50     -3504.5031   2.0000                                         
     2  0  0.50      -351.7660   2.0000                                         
     2  1  1.50      -279.8441   6.0000                                         
     3  0  0.50       -35.1349   2.0000                                         
     4  0  0.50        -2.4291   1.0000                                         
     3  1  1.50       -18.8344   6.0000                                         
     3  2  1.50        -1.3606   0.0000                                         
   Description                                                                  
     l       E           TYP  RCUT    TYP  RCUT                                 
     0    -35.1348885     23  2.300                                             
     0     -2.4291394     23  2.300                                             
     1    -18.8344179     23  2.300                                             
     1    -20.4087390     23  2.300                                             
     2     -1.3605826     23  2.300                                             
  local pseudopotential read in
  partial core-charges read in
  partial kinetic energy density read in
  atomic valenz-charges read in
  non local Contribution for L=           0  read in
    real space projection operators read in
  non local Contribution for L=           0  read in
    real space projection operators read in
  non local Contribution for L=           1  read in
    real space projection operators read in
  non local Contribution for L=           1  read in
    real space projection operators read in
  non local Contribution for L=           2  read in
    real space projection operators read in
    PAW grid and wavefunctions read in
 
   number of l-projection  operators is LMAX  =           5
   number of lm-projection operators is LMMAX =          13
 
 POTCAR:    PAW V_sv 02Aug2007                    
   VRHFIN =V: 3s3p4s3d                                                          
   LEXCH  = CA                                                                  
   EATOM  =  1952.9749 eV,  143.5396 Ry                                         
                                                                                
   TITEL  = PAW V_sv 02Aug2007                                                  
   LULTRA =        F    use ultrasoft PP ?                                      
   IUNSCR =        1    unscreen: 0-lin 1-nonlin 2-no                           
   RPACOR =    2.000    partial core radius                                     
   POMASS =   50.941; ZVAL   =   13.000    mass and valenz                      
   RCORE  =    2.300    outmost cutoff radius                                   
   RWIGS  =    2.300; RWIGS  =    1.217    wigner-seitz radius (au A)           
   ENMAX  =  263.722; ENMIN  =  197.791 eV                                      
   ICORE  =        3    local potential                                         
   LCOR   =        T    correct aug charges                                     
   LPAW   =        T    paw PP                                                  
   EAUG   =  526.568                                                            
   RMAX   =    2.359    core radius for proj-oper                               
   RAUG   =    1.300    factor for augmentation sphere                          
   RDEP   =    2.430    radius for radial grids                                 
   RDEPT  =    1.870    core radius for aug-charge                              
                                                                                
   Atomic configuration                                                         
    8 entries                                                                   
     n  l   j            E        occ.                                          
     1  0  0.50     -5334.6266   2.0000                                         
     2  0  0.50      -595.8619   2.0000                                         
     2  1  1.50      -498.2253   6.0000                                         
     3  0  0.50       -66.0397   2.0000                                         
     4  0  0.50        -4.0393   1.0000                                         
     3  1  1.50       -40.3980   6.0000                                         
     3  2  2.50        -2.6339   4.0000                                         
     4  3  2.50        -1.3606   0.0000                                         
   Description                                                                  
     l       E           TYP  RCUT    TYP  RCUT                                 
     0    -66.0396999     23  1.800                                             
     0     -4.0392529     23  2.300                                             
     1    -40.3979618     23  2.000                                             
     1      5.4423304     23  2.000                                             
     2     -2.6338670     23  2.300                                             
     2     -1.2520253     23  2.300                                             
     3     -1.3605826     23  2.300                                             
  local pseudopotential read in
  partial core-charges read in
  partial kinetic energy density read in
  atomic valenz-charges read in
  non local Contribution for L=           0  read in
    real space projection operators read in
  non local Contribution for L=           0  read in
    real space projection operators read in
  non local Contribution for L=           1  read in
    real space projection operators read in
  non local Contribution for L=           1  read in
    real space projection operators read in
  non local Contribution for L=           2  read in
    real space projection operators read in
  non local Contribution for L=           2  read in
    real space projection operators read in
    PAW grid and wavefunctions read in
 
   number of l-projection  operators is LMAX  =           6
   number of lm-projection operators is LMMAX =          18
 
 POTCAR:    PAW O 22Mar2012                       
   VRHFIN =O: s2p4                                                              
   LEXCH  = CA                                                                  
   EATOM  =   431.4380 eV,   31.7098 Ry                                         
                                                                                
   TITEL  = PAW O 22Mar2012                                                     
   LULTRA =        F    use ultrasoft PP ?                                      
   IUNSCR =        1    unscreen: 0-lin 1-nonlin 2-no                           
   RPACOR =    1.200    partial core radius                                     
   POMASS =   16.000; ZVAL   =    6.000    mass and valenz                      
   RCORE  =    1.520    outmost cutoff radius                                   
   RWIGS  =    1.550; RWIGS  =    0.820    wigner-seitz radius (au A)           
   ENMAX  =  400.000; ENMIN  =  300.000 eV                                      
   ICORE  =        2    local potential                                         
   LCOR   =        T    correct aug charges                                     
   LPAW   =        T    paw PP                                                  
   EAUG   =  605.392                                                            
   DEXC   =    0.000                                                            
   RMAX   =    1.553    core radius for proj-oper                               
   RAUG   =    1.300    factor for augmentation sphere                          
   RDEP   =    1.550    radius for radial grids                                 
   RDEPT  =    1.329    core radius for aug-charge                              
                                                                                
   Atomic configuration                                                         
    4 entries                                                                   
     n  l   j            E        occ.                                          
     1  0  0.50      -510.4605   2.0000                                         
     2  0  0.50       -23.7367   2.0000                                         
     2  1  0.50        -9.1995   4.0000                                         
     3  2  1.50        -9.5241   0.0000                                         
   Description                                                                  
     l       E           TYP  RCUT    TYP  RCUT                                 
     0    -23.7366993     23  1.200                                             
     0     -9.5240782     23  1.200                                             
     1     -9.1994509     23  1.520                                             
     1      8.1634956     23  1.520                                             
     2     -9.5240782      7  1.500                                             
  local pseudopotential read in
  partial core-charges read in
  partial kinetic energy density read in
  kinetic energy density of atom read in
  atomic valenz-charges read in
  non local Contribution for L=           0  read in
    real space projection operators read in
  non local Contribution for L=           0  read in
    real space projection operators read in
  non local Contribution for L=           1  read in
    real space projection operators read in
  non local Contribution for L=           1  read in
    real space projection operators read in
    PAW grid and wavefunctions read in
 
   number of l-projection  operators is LMAX  =           4
   number of lm-projection operators is LMMAX =           8
 

 ----------------------------------------------------------------------------- 
|                                                                             |
|  ADVICE TO THIS USER RUNNING 'VASP/VAMP'   (HEAR YOUR MASTER'S VOICE ...):  |
|                                                                             |
|      You have a (more or less) 'large supercell' and for larger cells       |
|      it might be more efficient to use real space projection opertators     |
|      So try LREAL= Auto  in the INCAR   file.                               |
|      Mind: At the moment your POTCAR file does not contain real space       |
|       projectors, and has to be modified,  BUT if you                       |
|      want to do an extremely  accurate calculation you might also keep the  |
|      reciprocal projection scheme          (i.e. LREAL=.FALSE.)             |
|                                                                             |
 ----------------------------------------------------------------------------- 

  PAW K_sv 22Nov2003                    :
 energy of atom  1       EATOM= -775.5499
 kinetic energy error for atom=    0.0031 (will be added to EATOM!!)
  PAW V_sv 02Aug2007                    :
 energy of atom  2       EATOM=-1952.9749
 kinetic energy error for atom=    0.0318 (will be added to EATOM!!)
  PAW O 22Mar2012                       :
 energy of atom  3       EATOM= -431.4380
 kinetic energy error for atom=    0.1130 (will be added to EATOM!!)
 
 
 POSCAR: System POSCAR                           
  positions in direct lattice
  No initial velocities read in
 exchange correlation table for  LEXCH =        2
   RHO(1)=    0.500       N(1)  =     2000
   RHO(2)=  100.500       N(2)  =     4000
 


--------------------------------------------------------------------------------------------------------


 ion  position               nearest neighbor table
   1  0.769  0.940  0.222-  16 1.58  13 1.87  15 2.17  18 2.21  17 2.33  19 2.66   5 2.76   8 2.91
                             7 2.92
   2  0.173  0.205  0.734-  14 1.83  15 2.14   4 2.20   9 2.44   3 3.07   7 3.32
   3  0.138  0.540  0.084-  10 1.72   9 1.86   4 2.12  11 2.25  13 2.52   6 2.88   2 3.07   4 3.56

   4  0.043  0.477  0.754-   9 1.61   3 2.12   2 2.20  14 2.72   6 2.83   8 3.32   3 3.56
   5  0.649  0.298  0.211-  17 1.45  12 1.48   9 2.26   8 2.28   1 2.76
   6  0.396  0.662  0.623-  19 1.36  20 1.41  11 1.84  14 2.37   4 2.83   3 2.88
   7  0.375  0.973  0.222-  17 1.61  18 2.03  10 2.19  11 2.27   1 2.92   2 3.32
   8  0.692  0.171  0.819-  18 2.13  17 2.15  16 2.23   5 2.28  12 2.39   1 2.91   4 3.32
   9  0.946  0.388  0.027-   4 1.61   3 1.86   5 2.26   2 2.44
  10  0.186  0.732  0.243-   3 1.72  11 1.84   7 2.19
  11  0.307  0.792  0.914-  10 1.84   6 1.84   3 2.25   7 2.27
  12  0.669  0.358  0.463-   5 1.48   8 2.39
  13  0.824  0.690  0.178-   1 1.87   3 2.52
  14  0.392  0.336  0.613-   2 1.83   6 2.37   4 2.72
  15  0.043  0.070  0.085-   2 2.14   1 2.17
  16  0.832  0.922  0.924-   1 1.58  18 1.71   8 2.23
  17  0.528  0.138  0.202-   5 1.45   7 1.61   8 2.15   1 2.33
  18  0.598  0.898  0.944-  16 1.71   7 2.03   8 2.13   1 2.21
  19  0.551  0.654  0.429-   6 1.36  20 1.45   1 2.66
  20  0.570  0.689  0.685-   6 1.41  19 1.45
 
  LATTYP: Found a triclinic cell.
 ALAT       =    18.7421084006
 B/A-ratio  =     0.3861753557
 C/A-ratio  =     0.2896873765
 COS(alpha) =     0.0092429300
 COS(beta)  =     0.4935391294
 COS(gamma) =     0.7859195164
  
  Lattice vectors:
  
 A1 = (   6.4878134546, -14.3346509134, -10.1829606240)
 A2 = (   0.2788827635,  -7.2314988910,  -0.1119552017)
 A3 = (  -0.6965039983,   0.0062733939,  -5.3844877447)


Analysis of symmetry for initial positions (statically):
=====================================================================
 Subroutine PRICEL returns:
 Original cell was already a primitive cell.
 

 Routine SETGRP: Setting up the symmetry group for a 
 triclinic supercell.


 Subroutine GETGRP returns: Found  1 space group operations
 (whereof  1 operations were pure point group operations)
 out of a pool of  2 trial point group operations.


The static configuration has the point symmetry C_1 .


Analysis of symmetry for dynamics (positions and initial velocities):
=====================================================================
 Subroutine PRICEL returns:
 Original cell was already a primitive cell.
 

 Routine SETGRP: Setting up the symmetry group for a 
 triclinic supercell.


 Subroutine GETGRP returns: Found  1 space group operations
 (whereof  1 operations were pure point group operations)
 out of a pool of  2 trial point group operations.


The dynamic configuration has the point symmetry C_1 .
 
 

Automatic generation of k-mesh.
 generate k-points for:    1    1    2
Space group operators:
 irot       det(A)        alpha          n_x          n_y          n_z        tau_x        tau_y        tau_z
    1     1.000000     0.000000     1.000000     0.000000     0.000000     0.000000     0.000000     0.000000
 
 Subroutine IBZKPT returns following result:
 ===========================================
 
 Found      1 irreducible k-points:
 
 Following reciprocal coordinates:
            Coordinates               Weight
  0.000000  0.000000  0.250000      2.000000
 
 Following cartesian coordinates:
            Coordinates               Weight
 -0.005195 -0.000930  0.047101      2.000000
 


--------------------------------------------------------------------------------------------------------




 Dimension of arrays:
   k-points           NKPTS =      1   k-points in BZ     NKDIM =      1   number of bands    NBANDS=     96
   number of dos      NEDOS =    301   number of ions     NIONS =     20
   non local maximal  LDIM  =      6   non local SUM 2l+1 LMDIM =     18
   total plane-waves  NPLWV =  36288
   max r-space proj   IRMAX =      1   max aug-charges    IRDMAX=   6204
   dimension x,y,z NGX =    36 NGY =   36 NGZ =   28
   dimension x,y,z NGXF=    72 NGYF=   72 NGZF=   56
   support grid    NGXF=    72 NGYF=   72 NGZF=   56
   ions per type =               4   4  12
 NGX,Y,Z   is equivalent  to a cutoff of   8.12,  8.27,  8.57 a.u.
 NGXF,Y,Z  is equivalent  to a cutoff of  16.24, 16.54, 17.15 a.u.


 I would recommend the setting:
   dimension x,y,z NGX =    36 NGY =   35 NGZ =   27
 SYSTEM =  unknown system                          
 POSCAR =  System POSCAR                           

 Startparameter for this run:
   NWRITE =      2    write-flag & timer
   PREC   = normal    normal or accurate (medium, high low for compatibility)
   ISTART =      0    job   : 0-new  1-cont  2-samecut
   ICHARG =      2    charge: 1-file 2-atom 10-const
   ISPIN  =      1    spin polarized calculation?
   LNONCOLLINEAR =      F non collinear calculations
   LSORBIT =      F    spin-orbit coupling
   INIWAV =      1    electr: 0-lowe 1-rand  2-diag
   LASPH  =      F    aspherical Exc in radial PAW
   METAGGA=      F    non-selfconsistent MetaGGA calc.

 Electronic Relaxation 1
   ENCUT  =  400.0 eV  29.40 Ry    5.42 a.u.  12.02 11.80  8.85*2*pi/ulx,y,z
   ENINI  =  400.0     initial cutoff
   ENAUG  =  605.4 eV  augmentation charge cutoff
   NELM   =     60;   NELMIN=  4; NELMDL= -5     # of ELM steps 
   EDIFF  = 0.4E-03   stopping-criterion for ELM
   LREAL  =      F    real-space projection
   NLSPLINE    = F    spline interpolate recip. space projectors
   LCOMPAT=      F    compatible to vasp.4.4
   GGA_COMPAT  = T    GGA compatible to vasp.4.4-vasp.4.6
   LMAXPAW     = -100 max onsite density
   LMAXMIX     =    2 max onsite mixed and CHGCAR
   VOSKOWN=      0    Vosko Wilk Nusair interpolation
   ROPT   =    0.00000   0.00000   0.00000
 Ionic relaxation
   EDIFFG = 0.4E-02   stopping-criterion for IOM
   NSW    =    191    number of steps for IOM
   NBLOCK =      1;   KBLOCK =    191    inner block; outer block 
   IBRION =      2    ionic relax: 0-MD 1-quasi-New 2-CG
   NFREE  =      1    steps in history (QN), initial steepest desc. (CG)
   ISIF   =      3    stress and relaxation
   IWAVPR =     11    prediction:  0-non 1-charg 2-wave 3-comb
   ISYM   =      2    0-nonsym 1-usesym 2-fastsym
   LCORR  =      T    Harris-Foulkes like correction to forces

   POTIM  = 0.5000    time-step for ionic-motion
   TEIN   =    0.0    initial temperature
   TEBEG  =    0.0;   TEEND  =   0.0 temperature during run
   SMASS  =  -3.00    Nose mass-parameter (am)
   estimated Nose-frequenzy (Omega)   =  0.10E-29 period in steps =****** mass=  -0.124E-26a.u.
   SCALEE = 1.0000    scale energy and forces
   NPACO  =    256;   APACO  = 16.0  distance and # of slots for P.C.
   PSTRESS=    0.0 pullay stress

  Mass of Ions in am
   POMASS =  39.10 50.94 16.00
  Ionic Valenz
   ZVAL   =   9.00 13.00  6.00
  Atomic Wigner-Seitz radii
   RWIGS  =  -1.00 -1.00 -1.00
  virtual crystal weights 
   VCA    =   1.00  1.00  1.00
   NELECT =     160.0000    total number of electrons
   NUPDOWN=      -1.0000    fix difference up-down

 DOS related values:
   EMIN   =  10.00;   EMAX   =-10.00  energy-range for DOS
   EFERMI =   0.00
   ISMEAR =     0;   SIGMA  =   0.01  broadening in eV -4-tet -1-fermi 0-gaus

 Electronic relaxation 2 (details)
   IALGO  =     38    algorithm
   LDIAG  =      T    sub-space diagonalisation (order eigenvalues)
   LSUBROT=      F    optimize rotation matrix (better conditioning)
   TURBO    =      0    0=normal 1=particle mesh
   IRESTART =      0    0=no restart 2=restart with 2 vectors
   NREBOOT  =      0    no. of reboots
   NMIN     =      0    reboot dimension
   EREF     =   0.00    reference energy to select bands
   IMIX   =      4    mixing-type and parameters
     AMIX     =   0.40;   BMIX     =  1.00
     AMIX_MAG =   1.60;   BMIX_MAG =  1.00
     AMIN     =   0.10
     WC   =   100.;   INIMIX=   1;  MIXPRE=   1;  MAXMIX= -45

 Intra band minimization:
   WEIMIN = 0.0010     energy-eigenvalue tresh-hold
   EBREAK =  0.10E-05  absolut break condition
   DEPER  =   0.30     relativ break condition  

   TIME   =   0.40     timestep for ELM

  volume/ion in A,a.u.               =      14.06        94.90
  Fermi-wavevector in a.u.,A,eV,Ry     =   1.356485  2.563385 25.035415  1.840051
  Thomas-Fermi vector in A             =   2.483484
 
 Write flags
   LWAVE  =      T    write WAVECAR
   LCHARG =      F    write CHGCAR
   LVTOT  =      F    write LOCPOT, total local potential
   LVHAR  =      F    write LOCPOT, Hartree potential only
   LELF   =      F    write electronic localiz. function (ELF)
   LORBIT =      0    0 simple, 1 ext, 2 COOP (PROOUT)


 Dipole corrections
   LMONO  =      F    monopole corrections only (constant potential shift)
   LDIPOL =      F    correct potential (dipole corrections)
   IDIPOL =      0    1-x, 2-y, 3-z, 4-all directions 
   EPSILON=  1.0000000 bulk dielectric constant

 Exchange correlation treatment:
   GGA     =    --    GGA type
   LEXCH   =     2    internal setting for exchange type
   VOSKOWN=      0    Vosko Wilk Nusair interpolation
   LHFCALC =     F    Hartree Fock is set to
   LHFONE  =     F    Hartree Fock one center treatment
   AEXX    =    0.0000 exact exchange contribution

 Linear response parameters
   LEPSILON=     F    determine dielectric tensor
   LRPA    =     F    only Hartree local field effects (RPA)
   LNABLA  =     F    use nabla operator in PAW spheres
   LVEL    =     F    velocity operator in full k-point grid
   LINTERFAST=   F  fast interpolation
   KINTER  =     0    interpolate to denser k-point grid
   CSHIFT  =0.1000    complex shift for real part using Kramers Kronig
   OMEGAMAX=  -1.0    maximum frequency
   DEG_THRESHOLD= 0.2000000E-02 threshold for treating states as degnerate
   RTIME   =    0.100 relaxation time in fs

 Orbital magnetization related:
   ORBITALMAG=     F  switch on orbital magnetization
   LCHIMAG   =     F  perturbation theory with respect to B field
   DQ        =  0.001000  dq finite difference perturbation B field



--------------------------------------------------------------------------------------------------------


 conjugate gradient relaxation of ions
 charge density and potential will be updated during run
 non-spin polarized calculation
 Variant of blocked Davidson
 Davidson routine will perform the subspace rotation
 perform sub-space diagonalisation
    after iterative eigenvector-optimisation
 modified Broyden-mixing scheme, WC =      100.0
 initial mixing is a Kerker type mixing with AMIX =  0.4000 and BMIX =      1.0000
 Hartree-type preconditioning will be used
 using additional bands           16
 reciprocal scheme for non local part
 use partial core corrections
 calculate Harris-corrections to forces 
   (improved forces if not selfconsistent)
 use of overlap-Matrix (Vanderbilt PP)
 Gauss-broadening in eV      SIGMA  =   0.01


--------------------------------------------------------------------------------------------------------


  energy-cutoff  :      400.00
  volume of cell :      281.25
      direct lattice vectors                 reciprocal lattice vectors
     7.323055924  0.115800081  0.809925269     0.138446151  0.005616328 -0.017901993
    -0.278882764  7.231498891  0.111955202    -0.002235004  0.138190757  0.000450110
     0.696503998 -0.006273394  5.384487745    -0.020778358 -0.003718084  0.188402116

  length of vectors
     7.368618369  7.237740378  5.429352212     0.139711707  0.138209562  0.189580911


 
 k-points in units of 2pi/SCALE and weight: read from INCAR                         
  -0.00519459 -0.00092952  0.04710053       1.000
 
 k-points in reciprocal lattice and weights: read from INCAR                         
   0.00000000  0.00000000  0.25000000       1.000
 
 position of ions in fractional coordinates (direct lattice) 
   0.76933268  0.94000471  0.22227783
   0.17287043  0.20520467  0.73368284
   0.13796569  0.53953915  0.08377266
   0.04348304  0.47738283  0.75414711
   0.64899276  0.29812202  0.21118800
   0.39594557  0.66244115  0.62260182
   0.37524184  0.97255592  0.22188608
   0.69206120  0.17135325  0.81910192
   0.94566414  0.38798822  0.02668190
   0.18648686  0.73159665  0.24251267
   0.30663635  0.79229870  0.91421175
   0.66940686  0.35806864  0.46290244
   0.82421212  0.69014210  0.17793680
   0.39179099  0.33565210  0.61339047
   0.04328538  0.07044478  0.08542496
   0.83153848  0.92156604  0.92429359
   0.52845296  0.13799888  0.20157466
   0.59773438  0.89848579  0.94423498
   0.55116766  0.65418488  0.42926149
   0.56988647  0.68940855  0.68499631
 
 position of ions in cartesian coordinates  (Angst):
   5.52653253  6.88533740  1.92519263
   1.71972482  1.49935307  4.11349213
   0.91821032  3.91712768  0.62321898
   0.71056134  3.45249771  4.14935936
   4.81656246  2.22969758  1.69615114
   3.14843282  4.83238713  3.74724193
   2.63123245  7.07509808  1.60754344
   5.59072319  1.31414306  4.99014600
   6.83553223  2.91507701  0.95302296
   1.33053507  5.31061416  1.53875297
   2.66130886  5.75928049  5.25961646
   5.12465810  2.66398638  3.07474967
   5.96721637  5.08508940  1.70291373
   3.20272866  2.46878920  3.65769288
   0.35683428  0.51389791  0.50291425
   6.47616807  6.75479757  5.75350564
   3.97180265  1.05786906  1.52883340
   4.78433350  6.56069316  5.66893199
   4.15277306  4.79186960  2.83099727
   4.45814899  5.04715279  4.22710255
 


--------------------------------------------------------------------------------------------------------


 k-point  1 :   0.0000 0.0000 0.2500  plane waves:    5089

 maximum and minimum number of plane-waves per node :      1275     1270

 maximum number of plane-waves:      5089
 maximum index in each direction: 
   IXMAX=   12   IYMAX=   11   IZMAX=    8
   IXMIN=  -12   IYMIN=  -11   IZMIN=   -9

 WARNING: aliasing errors must be expected set NGX to  50 to avoid them
 WARNING: aliasing errors must be expected set NGY to  46 to avoid them
 WARNING: aliasing errors must be expected set NGZ to  36 to avoid them
 aliasing errors are usually negligible using standard VASP settings
 and one can safely disregard these warnings

 parallel 3D FFT for wavefunctions:
    minimum data exchange during FFTs selected (reduces bandwidth)
 parallel 3D FFT for charge:
    minimum data exchange during FFTs selected (reduces bandwidth)


 total amount of memory used by VASP on root node    36343. kBytes
========================================================================

   base      :      30000. kBytes
   nonl-proj :        955. kBytes
   fftplans  :       1541. kBytes
   grid      :       2752. kBytes
   one-center:         77. kBytes
   wavefun   :       1018. kBytes
 
     INWAV:  cpu time    0.0000: real time    0.0000
 Broyden mixing: mesh for mixing (old mesh)
   NGX = 25   NGY = 23   NGZ = 17
  (NGX  = 72   NGY  = 72   NGZ  = 56)
  gives a total of   9775 points

 initial charge density was supplied:
 charge density of overlapping atoms calculated
 number of electron     160.0000000 magnetization 
 keeping initial charge density in first step


--------------------------------------------------------------------------------------------------------


 Maximum index for augmentation-charges          769 (set IRDMAX)


--------------------------------------------------------------------------------------------------------


 First call to EWALD:  gamma=   0.271
 Maximum number of real-space cells 3x 3x 3
 Maximum number of reciprocal cells 3x 3x 2

 FEWALD executed in parallel
    FEWALD:  cpu time    0.0020: real time    0.0022


----------------------------------------- Iteration    1(   1)  ---------------------------------------


    POTLOK:  cpu time    0.0120: real time    0.0115
    SETDIJ:  cpu time    0.0060: real time    0.0062
     EDDAV:  cpu time    0.2650: real time    0.2658
       DOS:  cpu time    0.0000: real time    0.0001
    --------------------------------------------
      LOOP:  cpu time    0.2830: real time    0.2880

 eigenvalue-minimisations  :   208
 total energy-change (2. order) : 0.1840277E+04  (-0.7805090E+04)
 number of electron     160.0000000 magnetization 
 augmentation part      160.0000000 magnetization 

 Free energy of the ion-electron system (eV)
  ---------------------------------------------------
  alpha Z        PSCENC =       678.29472853
  Ewald energy   TEWEN  =     -8906.22079980
  -Hartree energ DENC   =     -6255.07983353
  -exchange      EXHF   =         0.00000000
  -V(xc)+E(xc)   XCENC  =       775.95097575
  PAW double counting   =     12690.80487549   -12779.15586427
  entropy T*S    EENTRO =         0.00000000
  eigenvalues    EBANDS =      -454.17652425
  atomic energy  EATOM  =     16089.85910124
  Solvation  Ediel_sol  =         0.00000000
  ---------------------------------------------------
  free energy    TOTEN  =      1840.27665916 eV

  energy without entropy =     1840.27665916  energy(sigma->0) =     1840.27665916


--------------------------------------------------------------------------------------------------------




----------------------------------------- Iteration    1(   2)  ---------------------------------------


     EDDAV:  cpu time    0.2710: real time    0.2712
       DOS:  cpu time    0.0000: real time    0.0002
    --------------------------------------------
      LOOP:  cpu time    0.2710: real time    0.8691

 eigenvalue-minimisations  :   208
 total energy-change (2. order) :-0.1725310E+04  (-0.1631076E+04)
 number of electron     160.0000000 magnetization 
 augmentation part      160.0000000 magnetization 

 Free energy of the ion-electron system (eV)
  ---------------------------------------------------
  alpha Z        PSCENC =       678.29472853
  Ewald energy   TEWEN  =     -8906.22079980
  -Hartree energ DENC   =     -6255.07983353
  -exchange      EXHF   =         0.00000000
  -V(xc)+E(xc)   XCENC  =       775.95097575
  PAW double counting   =     12690.80487549   -12779.15586427
  entropy T*S    EENTRO =         0.00000000
  eigenvalues    EBANDS =     -2179.48688447
  atomic energy  EATOM  =     16089.85910124
  Solvation  Ediel_sol  =         0.00000000
  ---------------------------------------------------
  free energy    TOTEN  =       114.96629895 eV

  energy without entropy =      114.96629895  energy(sigma->0) =      114.96629895


--------------------------------------------------------------------------------------------------------




----------------------------------------- Iteration    1(   3)  ---------------------------------------


     EDDAV:  cpu time    0.3229: real time    0.3239
       DOS:  cpu time    0.0000: real time    0.0001
    --------------------------------------------
      LOOP:  cpu time    0.3239: real time    0.3332

 eigenvalue-minimisations  :   264
 total energy-change (2. order) :-0.2429338E+03  (-0.2301543E+03)
 number of electron     160.0000000 magnetization 
 augmentation part      160.0000000 magnetization 

 Free energy of the ion-electron system (eV)
  ---------------------------------------------------
  alpha Z        PSCENC =       678.29472853
  Ewald energy   TEWEN  =     -8906.22079980
  -Hartree energ DENC   =     -6255.07983353
  -exchange      EXHF   =         0.00000000
  -V(xc)+E(xc)   XCENC  =       775.95097575
  PAW double counting   =     12690.80487549   -12779.15586427
  entropy T*S    EENTRO =         0.00000000
  eigenvalues    EBANDS =     -2422.42069024
  atomic energy  EATOM  =     16089.85910124
  Solvation  Ediel_sol  =         0.00000000
  ---------------------------------------------------
  free energy    TOTEN  =      -127.96750683 eV

  energy without entropy =     -127.96750683  energy(sigma->0) =     -127.96750683


--------------------------------------------------------------------------------------------------------




----------------------------------------- Iteration    1(   4)  ---------------------------------------


     EDDAV:  cpu time    0.3349: real time    0.3357
       DOS:  cpu time    0.0000: real time    0.0001
    --------------------------------------------
      LOOP:  cpu time    0.3359: real time    0.9635

 eigenvalue-minimisations  :   272
 total energy-change (2. order) :-0.1474818E+02  (-0.1456552E+02)
 number of electron     160.0000000 magnetization 
 augmentation part      160.0000000 magnetization 

 Free energy of the ion-electron system (eV)
  ---------------------------------------------------
  alpha Z        PSCENC =       678.29472853
  Ewald energy   TEWEN  =     -8906.22079980
  -Hartree energ DENC   =     -6255.07983353
  -exchange      EXHF   =         0.00000000
  -V(xc)+E(xc)   XCENC  =       775.95097575
  PAW double counting   =     12690.80487549   -12779.15586427
  entropy T*S    EENTRO =         0.00000000
  eigenvalues    EBANDS =     -2437.16887080
  atomic energy  EATOM  =     16089.85910124
  Solvation  Ediel_sol  =         0.00000000
  ---------------------------------------------------
  free energy    TOTEN  =      -142.71568739 eV

  energy without entropy =     -142.71568739  energy(sigma->0) =     -142.71568739


--------------------------------------------------------------------------------------------------------




----------------------------------------- Iteration    1(   5)  ---------------------------------------


     EDDAV:  cpu time    0.3889: real time    0.3891
       DOS:  cpu time    0.0000: real time    0.0001
    CHARGE:  cpu time    0.0120: real time    0.0123
    MIXING:  cpu time    0.0020: real time    0.0010
    --------------------------------------------
      LOOP:  cpu time    0.4039: real time    0.4053

 eigenvalue-minimisations  :   328
 total energy-change (2. order) :-0.6003523E+00  (-0.5990590E+00)
 number of electron     160.0000322 magnetization 
 augmentation part       30.6232314 magnetization 

 Broyden mixing:
  rms(total) = 0.14739E+02    rms(broyden)= 0.14738E+02
  rms(prec ) = 0.16708E+02
  weight for this iteration     100.00

 Free energy of the ion-electron system (eV)
  ---------------------------------------------------
  alpha Z        PSCENC =       678.29472853
  Ewald energy   TEWEN  =     -8906.22079980
  -Hartree energ DENC   =     -6255.07983353
  -exchange      EXHF   =         0.00000000
  -V(xc)+E(xc)   XCENC  =       775.95097575
  PAW double counting   =     12690.80487549   -12779.15586427
  entropy T*S    EENTRO =         0.00000000
  eigenvalues    EBANDS =     -2437.76922312
  atomic energy  EATOM  =     16089.85910124
  Solvation  Ediel_sol  =         0.00000000
  ---------------------------------------------------
  free energy    TOTEN  =      -143.31603970 eV

  energy without entropy =     -143.31603970  energy(sigma->0) =     -143.31603970


--------------------------------------------------------------------------------------------------------




----------------------------------------- Iteration    1(   6)  ---------------------------------------


    POTLOK:  cpu time    0.0110: real time    0.0111
    SETDIJ:  cpu time    0.0070: real time    0.0065
     EDDAV:  cpu time    0.3220: real time    0.3229
       DOS:  cpu time    0.0010: real time    0.0001
    CHARGE:  cpu time    0.0120: real time    0.0124
    MIXING:  cpu time    0.0010: real time    0.0012
    --------------------------------------------
      LOOP:  cpu time    0.3539: real time    0.8630

 eigenvalue-minimisations  :   264
 total energy-change (2. order) :-0.1107980E+03  (-0.8804871E+02)
 number of electron     160.0000280 magnetization 
 augmentation part       42.6538875 magnetization 

 Broyden mixing:
  rms(total) = 0.13518E+02    rms(broyden)= 0.13515E+02
  rms(prec ) = 0.22403E+02
  weight for this iteration     100.00

 eigenvalues of (default mixing * dielectric matrix)
  average eigenvalue GAMMA=   0.5673
  0.5673

 Free energy of the ion-electron system (eV)
  ---------------------------------------------------
  alpha Z        PSCENC =       678.29472853
  Ewald energy   TEWEN  =     -8906.22079980
  -Hartree energ DENC   =     -6241.68980679
  -exchange      EXHF   =         0.00000000
  -V(xc)+E(xc)   XCENC  =       784.37997296
  PAW double counting   =     16429.40319853   -16527.16340028
  entropy T*S    EENTRO =         0.00000000
  eigenvalues    EBANDS =     -2560.97704500
  atomic energy  EATOM  =     16089.85910124
  Solvation  Ediel_sol  =         0.00000000
  ---------------------------------------------------
  free energy    TOTEN  =      -254.11405061 eV

  energy without entropy =     -254.11405061  energy(sigma->0) =     -254.11405061


--------------------------------------------------------------------------------------------------------




----------------------------------------- Iteration    1(   7)  ---------------------------------------


    POTLOK:  cpu time    0.0110: real time    0.0111
    SETDIJ:  cpu time    0.0060: real time    0.0064
     EDDAV:  cpu time    0.3479: real time    0.3481
       DOS:  cpu time    0.0000: real time    0.0001
    CHARGE:  cpu time    0.0130: real time    0.0122
    MIXING:  cpu time    0.0010: real time    0.0012
    --------------------------------------------
      LOOP:  cpu time    0.3789: real time    0.3828

 eigenvalue-minimisations  :   288
 total energy-change (2. order) : 0.1595352E+03  (-0.1025253E+03)
 number of electron     160.0000221 magnetization 
 augmentation part       29.9843139 magnetization 

 Broyden mixing:
  rms(total) = 0.79558E+01    rms(broyden)= 0.79531E+01
  rms(prec ) = 0.94392E+01
  weight for this iteration     100.00

 eigenvalues of (default mixing * dielectric matrix)
  average eigenvalue GAMMA=   0.9373
  1.5804  0.2941

 Free energy of the ion-electron system (eV)
  ---------------------------------------------------
  alpha Z        PSCENC =       678.29472853
  Ewald energy   TEWEN  =     -8906.22079980
  -Hartree energ DENC   =     -6465.30026049
  -exchange      EXHF   =         0.00000000
  -V(xc)+E(xc)   XCENC  =       788.01924971
  PAW double counting   =     17913.80684361   -18017.52347648
  entropy T*S    EENTRO =         0.00000000
  eigenvalues    EBANDS =     -2175.51425558
  atomic energy  EATOM  =     16089.85910124
  Solvation  Ediel_sol  =         0.00000000
  ---------------------------------------------------
  free energy    TOTEN  =       -94.57886925 eV

  energy without entropy =      -94.57886925  energy(sigma->0) =      -94.57886925


--------------------------------------------------------------------------------------------------------




----------------------------------------- Iteration    1(   8)  ---------------------------------------


    POTLOK:  cpu time    0.0110: real time    0.0111
    SETDIJ:  cpu time    0.0060: real time    0.0064
     EDDAV:  cpu time    0.3230: real time    0.3228
       DOS:  cpu time    0.0000: real time    0.0001
    CHARGE:  cpu time    0.0130: real time    0.0127
    MIXING:  cpu time    0.0010: real time    0.0012
    --------------------------------------------
      LOOP:  cpu time    0.3539: real time    0.8485

 eigenvalue-minimisations  :   264
 total energy-change (2. order) :-0.1623240E+02  (-0.3178228E+02)
 number of electron     160.0000265 magnetization 
 augmentation part       30.2128576 magnetization 

 Broyden mixing:
  rms(total) = 0.63655E+01    rms(broyden)= 0.63625E+01
  rms(prec ) = 0.86145E+01
  weight for this iteration     100.00

 eigenvalues of (default mixing * dielectric matrix)
  average eigenvalue GAMMA=   0.9935
  2.2352  0.3727  0.3727

 Free energy of the ion-electron system (eV)
  ---------------------------------------------------
  alpha Z        PSCENC =       678.29472853
  Ewald energy   TEWEN  =     -8906.22079980
  -Hartree energ DENC   =     -6388.56736501
  -exchange      EXHF   =         0.00000000
  -V(xc)+E(xc)   XCENC  =       783.97513056
  PAW double counting   =     21057.49560915   -21161.38507065
  entropy T*S    EENTRO =         0.00000000
  eigenvalues    EBANDS =     -2264.26260366
  atomic energy  EATOM  =     16089.85910124
  Solvation  Ediel_sol  =         0.00000000
  ---------------------------------------------------
  free energy    TOTEN  =      -110.81126963 eV

  energy without entropy =     -110.81126963  energy(sigma->0) =     -110.81126963


--------------------------------------------------------------------------------------------------------




----------------------------------------- Iteration    1(   9)  ---------------------------------------


    POTLOK:  cpu time    0.0110: real time    0.0111
    SETDIJ:  cpu time    0.0060: real time    0.0063
     EDDAV:  cpu time    0.3140: real time    0.3141
       DOS:  cpu time    0.0000: real time    0.0001
    CHARGE:  cpu time    0.0130: real time    0.0125
    MIXING:  cpu time    0.0010: real time    0.0012
    --------------------------------------------
      LOOP:  cpu time    0.3459: real time    0.3491

 eigenvalue-minimisations  :   256
 total energy-change (2. order) : 0.1452658E+02  (-0.4700873E+01)
 number of electron     160.0000247 magnetization 
 augmentation part       30.4012659 magnetization 

 Broyden mixing:
  rms(total) = 0.37170E+01    rms(broyden)= 0.37141E+01
  rms(prec ) = 0.57692E+01
  weight for this iteration     100.00

 eigenvalues of (default mixing * dielectric matrix)
  average eigenvalue GAMMA=   0.8823
  2.2729  0.3116  0.4723  0.4723

 Free energy of the ion-electron system (eV)
  ---------------------------------------------------
  alpha Z        PSCENC =       678.29472853
  Ewald energy   TEWEN  =     -8906.22079980
  -Hartree energ DENC   =     -6387.52123592
  -exchange      EXHF   =         0.00000000
  -V(xc)+E(xc)   XCENC  =       784.82195927
  PAW double counting   =     23643.13830826   -23748.78877780
  entropy T*S    EENTRO =         0.00000000
  eigenvalues    EBANDS =     -2249.86797296
  atomic energy  EATOM  =     16089.85910124
  Solvation  Ediel_sol  =         0.00000000
  ---------------------------------------------------
  free energy    TOTEN  =       -96.28468917 eV

  energy without entropy =      -96.28468917  energy(sigma->0) =      -96.28468917


--------------------------------------------------------------------------------------------------------




----------------------------------------- Iteration    1(  10)  ---------------------------------------


    POTLOK:  cpu time    0.0110: real time    0.0111
    SETDIJ:  cpu time    0.0060: real time    0.0064
     EDDAV:  cpu time    0.3160: real time    0.3157
       DOS:  cpu time    0.0000: real time    0.0001
    CHARGE:  cpu time    0.0120: real time    0.0123
    MIXING:  cpu time    0.0020: real time    0.0013
    --------------------------------------------
      LOOP:  cpu time    0.3469: real time    0.8732

 eigenvalue-minimisations  :   256
 total energy-change (2. order) : 0.3068134E+01  (-0.2113678E+01)
 number of electron     160.0000246 magnetization 
 augmentation part       31.9933198 magnetization 

 Broyden mixing:
  rms(total) = 0.34889E+01    rms(broyden)= 0.34865E+01
  rms(prec ) = 0.60853E+01
  weight for this iteration     100.00

 eigenvalues of (default mixing * dielectric matrix)
  average eigenvalue GAMMA=   0.7341
  2.2244  0.4982  0.4982  0.3146  0.1349

 Free energy of the ion-electron system (eV)
  ---------------------------------------------------
  alpha Z        PSCENC =       678.29472853
  Ewald energy   TEWEN  =     -8906.22079980
  -Hartree energ DENC   =     -6376.10748901
  -exchange      EXHF   =         0.00000000
  -V(xc)+E(xc)   XCENC  =       785.08788371
  PAW double counting   =     24154.23699412   -24259.63640080
  entropy T*S    EENTRO =         0.00000000
  eigenvalues    EBANDS =     -2258.73057289
  atomic energy  EATOM  =     16089.85910124
  Solvation  Ediel_sol  =         0.00000000
  ---------------------------------------------------
  free energy    TOTEN  =       -93.21655489 eV

  energy without entropy =      -93.21655489  energy(sigma->0) =      -93.21655489


--------------------------------------------------------------------------------------------------------




----------------------------------------- Iteration    1(  11)  ---------------------------------------


    POTLOK:  cpu time    0.0110: real time    0.0111
    SETDIJ:  cpu time    0.0060: real time    0.0064
     EDDAV:  cpu time    0.3060: real time    0.3060
       DOS:  cpu time    0.0000: real time    0.0001
    CHARGE:  cpu time    0.0130: real time    0.0124
    MIXING:  cpu time    0.0010: real time    0.0013
    --------------------------------------------
      LOOP:  cpu time    0.3369: real time    0.3406

 eigenvalue-minimisations  :   248
 total energy-change (2. order) : 0.5372207E+01  (-0.7798042E+00)
 number of electron     160.0000226 magnetization 
 augmentation part       30.8113889 magnetization 

 Broyden mixing:
  rms(total) = 0.20294E+01    rms(broyden)= 0.20274E+01
  rms(prec ) = 0.31854E+01
  weight for this iteration     100.00

 eigenvalues of (default mixing * dielectric matrix)
  average eigenvalue GAMMA=   0.6911
  2.1062  0.6124  0.6124  0.3261  0.3261  0.1635

 Free energy of the ion-electron system (eV)
  ---------------------------------------------------
  alpha Z        PSCENC =       678.29472853
  Ewald energy   TEWEN  =     -8906.22079980
  -Hartree energ DENC   =     -6368.35742772
  -exchange      EXHF   =         0.00000000
  -V(xc)+E(xc)   XCENC  =       784.96273625
  PAW double counting   =     24095.52069887   -24200.23784973
  entropy T*S    EENTRO =         0.00000000
  eigenvalues    EBANDS =     -2261.66553564
  atomic energy  EATOM  =     16089.85910124
  Solvation  Ediel_sol  =         0.00000000
  ---------------------------------------------------
  free energy    TOTEN  =       -87.84434799 eV

  energy without entropy =      -87.84434799  energy(sigma->0) =      -87.84434799


--------------------------------------------------------------------------------------------------------




----------------------------------------- Iteration    1(  12)  ---------------------------------------


    POTLOK:  cpu time    0.0110: real time    0.0112
    SETDIJ:  cpu time    0.0060: real time    0.0064
     EDDAV:  cpu time    0.3120: real time    0.3124
       DOS:  cpu time    0.0000: real time    0.0001
    CHARGE:  cpu time    0.0120: real time    0.0125
    MIXING:  cpu time    0.0020: real time    0.0014
    --------------------------------------------
      LOOP:  cpu time    0.3439: real time    0.9378

 eigenvalue-minimisations  :   248
 total energy-change (2. order) : 0.1301327E+01  (-0.4072250E+00)
 number of electron     160.0000250 magnetization 
 augmentation part       31.8404519 magnetization 

 Broyden mixing:
  rms(total) = 0.20009E+01    rms(broyden)= 0.19989E+01
  rms(prec ) = 0.28815E+01
  weight for this iteration     100.00

 eigenvalues of (default mixing * dielectric matrix)
  average eigenvalue GAMMA=   0.6300
  1.9757  0.7103  0.7103  0.3379  0.3379  0.2058  0.1322

 Free energy of the ion-electron system (eV)
  ---------------------------------------------------
  alpha Z        PSCENC =       678.29472853
  Ewald energy   TEWEN  =     -8906.22079980
  -Hartree energ DENC   =     -6357.35311297
  -exchange      EXHF   =         0.00000000
  -V(xc)+E(xc)   XCENC  =       784.46903860
  PAW double counting   =     24019.88940623   -24123.93852839
  entropy T*S    EENTRO =         0.00000000
  eigenvalues    EBANDS =     -2271.54285488
  atomic energy  EATOM  =     16089.85910124
  Solvation  Ediel_sol  =         0.00000000
  ---------------------------------------------------
  free energy    TOTEN  =       -86.54302144 eV

  energy without entropy =      -86.54302144  energy(sigma->0) =      -86.54302144


--------------------------------------------------------------------------------------------------------




----------------------------------------- Iteration    1(  13)  ---------------------------------------


    POTLOK:  cpu time    0.0110: real time    0.0111
    SETDIJ:  cpu time    0.0060: real time    0.0064
     EDDAV:  cpu time    0.2910: real time    0.2910
       DOS:  cpu time    0.0000: real time    0.0001
    CHARGE:  cpu time    0.0130: real time    0.0124
    MIXING:  cpu time    0.0010: real time    0.0015
    --------------------------------------------
      LOOP:  cpu time    0.3230: real time    0.3259

 eigenvalue-minimisations  :   232
 total energy-change (2. order) : 0.1170571E+01  (-0.7836414E-01)
 number of electron     160.0000230 magnetization 
 augmentation part       31.8403056 magnetization 

 Broyden mixing:
  rms(total) = 0.15331E+01    rms(broyden)= 0.15322E+01
  rms(prec ) = 0.20999E+01
  weight for this iteration     100.00

 eigenvalues of (default mixing * dielectric matrix)
  average eigenvalue GAMMA=   0.5950
  1.9116  0.7732  0.7732  0.3463  0.3463  0.2198  0.2198  0.1699

 Free energy of the ion-electron system (eV)
  ---------------------------------------------------
  alpha Z        PSCENC =       678.29472853
  Ewald energy   TEWEN  =     -8906.22079980
  -Hartree energ DENC   =     -6345.05353352
  -exchange      EXHF   =         0.00000000
  -V(xc)+E(xc)   XCENC  =       783.89930035
  PAW double counting   =     23797.34127415   -23900.16042301
  entropy T*S    EENTRO =         0.00000000
  eigenvalues    EBANDS =     -2283.33209830
  atomic energy  EATOM  =     16089.85910124
  Solvation  Ediel_sol  =         0.00000000
  ---------------------------------------------------
  free energy    TOTEN  =       -85.37245036 eV

  energy without entropy =      -85.37245036  energy(sigma->0) =      -85.37245036


--------------------------------------------------------------------------------------------------------




----------------------------------------- Iteration    1(  14)  ---------------------------------------


    POTLOK:  cpu time    0.0110: real time    0.0111
    SETDIJ:  cpu time    0.0070: real time    0.0064
     EDDAV:  cpu time    0.3150: real time    0.3148
       DOS:  cpu time    0.0000: real time    0.0002
    CHARGE:  cpu time    0.0120: real time    0.0124
    MIXING:  cpu time    0.0020: real time    0.0015
    --------------------------------------------
      LOOP:  cpu time    0.3489: real time    0.3496

 eigenvalue-minimisations  :   256
 total energy-change (2. order) : 0.3158356E+00  (-0.3434870E-01)
 number of electron     160.0000245 magnetization 
 augmentation part       31.9373892 magnetization 

 Broyden mixing:
  rms(total) = 0.12824E+01    rms(broyden)= 0.12818E+01
  rms(prec ) = 0.17766E+01
  weight for this iteration     100.00

 eigenvalues of (default mixing * dielectric matrix)
  average eigenvalue GAMMA=   0.6402
  1.6446  1.1620  1.1620  0.4206  0.4206  0.3157  0.3157  0.1603  0.1603

 Free energy of the ion-electron system (eV)
  ---------------------------------------------------
  alpha Z        PSCENC =       678.29472853
  Ewald energy   TEWEN  =     -8906.22079980
  -Hartree energ DENC   =     -6337.87927729
  -exchange      EXHF   =         0.00000000
  -V(xc)+E(xc)   XCENC  =       783.55765359
  PAW double counting   =     23713.31398405   -23815.31225223
  entropy T*S    EENTRO =         0.00000000
  eigenvalues    EBANDS =     -2290.66975288
  atomic energy  EATOM  =     16089.85910124
  Solvation  Ediel_sol  =         0.00000000
  ---------------------------------------------------
  free energy    TOTEN  =       -85.05661477 eV

  energy without entropy =      -85.05661476  energy(sigma->0) =      -85.05661477


--------------------------------------------------------------------------------------------------------




----------------------------------------- Iteration    1(  15)  ---------------------------------------


    POTLOK:  cpu time    0.0110: real time    0.0111
    SETDIJ:  cpu time    0.0060: real time    0.0064
     EDDAV:  cpu time    0.2990: real time    0.2985
       DOS:  cpu time    0.0000: real time    0.0002
    CHARGE:  cpu time    0.0130: real time    0.0126
    MIXING:  cpu time    0.0010: real time    0.0016
    --------------------------------------------
      LOOP:  cpu time    0.3299: real time    0.3336

 eigenvalue-minimisations  :   240
 total energy-change (2. order) : 0.1710558E+00  (-0.5518570E-01)
 number of electron     160.0000216 magnetization 
 augmentation part       32.0951932 magnetization 

 Broyden mixing:
  rms(total) = 0.11520E+01    rms(broyden)= 0.11503E+01
  rms(prec ) = 0.16470E+01
  weight for this iteration     100.00

 eigenvalues of (default mixing * dielectric matrix)
  average eigenvalue GAMMA=   0.6544
  1.6544  1.6544  0.7300  0.6501  0.6501  0.3148  0.2919  0.2919  0.1531  0.1531

 Free energy of the ion-electron system (eV)
  ---------------------------------------------------
  alpha Z        PSCENC =       678.29472853
  Ewald energy   TEWEN  =     -8906.22079980
  -Hartree energ DENC   =     -6326.97377896
  -exchange      EXHF   =         0.00000000
  -V(xc)+E(xc)   XCENC  =       782.90699824
  PAW double counting   =     23630.69684079   -23730.86943818
  entropy T*S    EENTRO =        -0.00000030
  eigenvalues    EBANDS =     -2302.57921051
  atomic energy  EATOM  =     16089.85910124
  Solvation  Ediel_sol  =         0.00000000
  ---------------------------------------------------
  free energy    TOTEN  =       -84.88555894 eV

  energy without entropy =      -84.88555864  energy(sigma->0) =      -84.88555879


--------------------------------------------------------------------------------------------------------




----------------------------------------- Iteration    1(  16)  ---------------------------------------


    POTLOK:  cpu time    0.0110: real time    0.0112
    SETDIJ:  cpu time    0.0060: real time    0.0065
     EDDAV:  cpu time    0.3050: real time    0.3045
       DOS:  cpu time    0.0000: real time    0.0003
    CHARGE:  cpu time    0.0130: real time    0.0125
    MIXING:  cpu time    0.0010: real time    0.0017
    --------------------------------------------
      LOOP:  cpu time    0.3359: real time    0.3414

 eigenvalue-minimisations  :   248
 total energy-change (2. order) : 0.1989027E+00  (-0.4682052E-01)
 number of electron     160.0000239 magnetization 
 augmentation part       31.7591787 magnetization 

 Broyden mixing:
  rms(total) = 0.77101E+00    rms(broyden)= 0.76796E+00
  rms(prec ) = 0.12572E+01
  weight for this iteration     100.00

 eigenvalues of (default mixing * dielectric matrix)
  average eigenvalue GAMMA=   0.6762
  1.5864  1.5864  1.0164  1.0164  0.6943  0.3618  0.3618  0.2666  0.2450  0.1514
  0.1514

 Free energy of the ion-electron system (eV)
  ---------------------------------------------------
  alpha Z        PSCENC =       678.29472853
  Ewald energy   TEWEN  =     -8906.22079980
  -Hartree energ DENC   =     -6323.45060649
  -exchange      EXHF   =         0.00000000
  -V(xc)+E(xc)   XCENC  =       782.67320152
  PAW double counting   =     23550.15675028   -23648.93892049
  entropy T*S    EENTRO =        -0.00113756
  eigenvalues    EBANDS =     -2307.05897346
  atomic energy  EATOM  =     16089.85910124
  Solvation  Ediel_sol  =         0.00000000
  ---------------------------------------------------
  free energy    TOTEN  =       -84.68665623 eV

  energy without entropy =      -84.68551866  energy(sigma->0) =      -84.68608745


--------------------------------------------------------------------------------------------------------




----------------------------------------- Iteration    1(  17)  ---------------------------------------


    POTLOK:  cpu time    0.0110: real time    0.0111
    SETDIJ:  cpu time    0.0060: real time    0.0064
     EDDAV:  cpu time    0.3040: real time    0.3044
       DOS:  cpu time    0.0000: real time    0.0002
    CHARGE:  cpu time    0.0130: real time    0.0125
    MIXING:  cpu time    0.0010: real time    0.0018
    --------------------------------------------
      LOOP:  cpu time    0.3359: real time    0.3402

 eigenvalue-minimisations  :   248
 total energy-change (2. order) :-0.8483204E-01  (-0.6894639E-01)
 number of electron     160.0000227 magnetization 
 augmentation part       32.2225364 magnetization 

 Broyden mixing:
  rms(total) = 0.86827E+00    rms(broyden)= 0.86677E+00
  rms(prec ) = 0.13561E+01
  weight for this iteration     100.00

 eigenvalues of (default mixing * dielectric matrix)
  average eigenvalue GAMMA=   0.6896
  1.6980  1.6534  1.6534  0.7430  0.7430  0.3826  0.3826  0.2652  0.2652  0.1896
  0.1498  0.1498

 Free energy of the ion-electron system (eV)
  ---------------------------------------------------
  alpha Z        PSCENC =       678.29472853
  Ewald energy   TEWEN  =     -8906.22079980
  -Hartree energ DENC   =     -6333.19376677
  -exchange      EXHF   =         0.00000000
  -V(xc)+E(xc)   XCENC  =       783.20089750
  PAW double counting   =     23641.83464345   -23740.77514810
  entropy T*S    EENTRO =        -0.00000060
  eigenvalues    EBANDS =     -2297.77114372
  atomic energy  EATOM  =     16089.85910124
  Solvation  Ediel_sol  =         0.00000000
  ---------------------------------------------------
  free energy    TOTEN  =       -84.77148827 eV

  energy without entropy =      -84.77148767  energy(sigma->0) =      -84.77148797


--------------------------------------------------------------------------------------------------------




----------------------------------------- Iteration    1(  18)  ---------------------------------------


    POTLOK:  cpu time    0.0110: real time    0.0111
    SETDIJ:  cpu time    0.0060: real time    0.0064
     EDDAV:  cpu time    0.3210: real time    0.3210
       DOS:  cpu time    0.0000: real time    0.0001
    CHARGE:  cpu time    0.0130: real time    0.0127
    MIXING:  cpu time    0.0020: real time    0.0019
    --------------------------------------------
      LOOP:  cpu time    0.3539: real time    0.3566

 eigenvalue-minimisations  :   264
 total energy-change (2. order) : 0.5108947E-01  (-0.1981699E-01)
 number of electron     160.0000235 magnetization 
 augmentation part       31.9043392 magnetization 

 Broyden mixing:
  rms(total) = 0.72198E+00    rms(broyden)= 0.72142E+00
  rms(prec ) = 0.10869E+01
  weight for this iteration     100.00

 eigenvalues of (default mixing * dielectric matrix)
  average eigenvalue GAMMA=   0.7089
  2.0291  2.0291  1.1148  1.1148  0.6573  0.4244  0.4244  0.3165  0.3165  0.2954
  0.1901  0.1513  0.1513

 Free energy of the ion-electron system (eV)
  ---------------------------------------------------
  alpha Z        PSCENC =       678.29472853
  Ewald energy   TEWEN  =     -8906.22079980
  -Hartree energ DENC   =     -6338.80030638
  -exchange      EXHF   =         0.00000000
  -V(xc)+E(xc)   XCENC  =       783.36562263
  PAW double counting   =     23741.03730300   -23839.73468007
  entropy T*S    EENTRO =         0.00000000
  eigenvalues    EBANDS =     -2292.52136797
  atomic energy  EATOM  =     16089.85910124
  Solvation  Ediel_sol  =         0.00000000
  ---------------------------------------------------
  free energy    TOTEN  =       -84.72039880 eV

  energy without entropy =      -84.72039880  energy(sigma->0) =      -84.72039880


--------------------------------------------------------------------------------------------------------




----------------------------------------- Iteration    1(  19)  ---------------------------------------


    POTLOK:  cpu time    0.0110: real time    0.0112
    SETDIJ:  cpu time    0.0060: real time    0.0064
     EDDAV:  cpu time    0.2950: real time    0.2952
       DOS:  cpu time    0.0010: real time    0.0003
    CHARGE:  cpu time    0.0120: real time    0.0125
    MIXING:  cpu time    0.0020: real time    0.0020
    --------------------------------------------
      LOOP:  cpu time    0.3270: real time    0.3306

 eigenvalue-minimisations  :   240
 total energy-change (2. order) : 0.1306724E+00  (-0.2018666E-01)
 number of electron     160.0000229 magnetization 
 augmentation part       32.1140236 magnetization 

 Broyden mixing:
  rms(total) = 0.44706E+00    rms(broyden)= 0.44649E+00
  rms(prec ) = 0.77163E+00
  weight for this iteration     100.00

 eigenvalues of (default mixing * dielectric matrix)
  average eigenvalue GAMMA=   0.6991
  1.9909  1.9909  1.1839  1.1839  0.5865  0.5865  0.5269  0.3668  0.3668  0.2650
  0.2650  0.1515  0.1515  0.1713

 Free energy of the ion-electron system (eV)
  ---------------------------------------------------
  alpha Z        PSCENC =       678.29472853
  Ewald energy   TEWEN  =     -8906.22079980
  -Hartree energ DENC   =     -6331.81749743
  -exchange      EXHF   =         0.00000000
  -V(xc)+E(xc)   XCENC  =       783.03259515
  PAW double counting   =     23767.72380158   -23865.10112651
  entropy T*S    EENTRO =        -0.00008865
  eigenvalues    EBANDS =     -2300.36044055
  atomic energy  EATOM  =     16089.85910124
  Solvation  Ediel_sol  =         0.00000000
  ---------------------------------------------------
  free energy    TOTEN  =       -84.58972643 eV

  energy without entropy =      -84.58963778  energy(sigma->0) =      -84.58968211


--------------------------------------------------------------------------------------------------------




----------------------------------------- Iteration    1(  20)  ---------------------------------------


    POTLOK:  cpu time    0.0110: real time    0.0111
    SETDIJ:  cpu time    0.0060: real time    0.0064
     EDDAV:  cpu time    0.2960: real time    0.2957
       DOS:  cpu time    0.0000: real time    0.0003
    CHARGE:  cpu time    0.0130: real time    0.0125
    MIXING:  cpu time    0.0020: real time    0.0021
    --------------------------------------------
      LOOP:  cpu time    0.3279: real time    0.3308

 eigenvalue-minimisations  :   240
 total energy-change (2. order) : 0.6426600E-01  (-0.1105234E-01)
 number of electron     160.0000228 magnetization 
 augmentation part       32.0739392 magnetization 

 Broyden mixing:
  rms(total) = 0.23922E+00    rms(broyden)= 0.23875E+00
  rms(prec ) = 0.40086E+00
  weight for this iteration     100.00

 eigenvalues of (default mixing * dielectric matrix)
  average eigenvalue GAMMA=   0.7141
  1.8236  1.8068  1.8068  1.3054  0.7044  0.7044  0.4598  0.4598  0.3121  0.3121
  0.2706  0.2706  0.1516  0.1516  0.1717

 Free energy of the ion-electron system (eV)
  ---------------------------------------------------
  alpha Z        PSCENC =       678.29472853
  Ewald energy   TEWEN  =     -8906.22079980
  -Hartree energ DENC   =     -6330.53930268
  -exchange      EXHF   =         0.00000000
  -V(xc)+E(xc)   XCENC  =       782.94256208
  PAW double counting   =     23786.22675499   -23883.29402205
  entropy T*S    EENTRO =        -0.00004250
  eigenvalues    EBANDS =     -2301.79444024
  atomic energy  EATOM  =     16089.85910124
  Solvation  Ediel_sol  =         0.00000000
  ---------------------------------------------------
  free energy    TOTEN  =       -84.52546043 eV

  energy without entropy =      -84.52541793  energy(sigma->0) =      -84.52543918


--------------------------------------------------------------------------------------------------------




----------------------------------------- Iteration    1(  21)  ---------------------------------------


    POTLOK:  cpu time    0.0110: real time    0.0111
    SETDIJ:  cpu time    0.0070: real time    0.0066
     EDDAV:  cpu time    0.3200: real time    0.3204
       DOS:  cpu time    0.0000: real time    0.0003
    CHARGE:  cpu time    0.0130: real time    0.0125
    MIXING:  cpu time    0.0020: real time    0.0022
    --------------------------------------------
      LOOP:  cpu time    0.3529: real time    0.3563

 eigenvalue-minimisations  :   264
 total energy-change (2. order) : 0.1712306E-01  (-0.3563045E-02)
 number of electron     160.0000229 magnetization 
 augmentation part       31.9606964 magnetization 

 Broyden mixing:
  rms(total) = 0.17263E+00    rms(broyden)= 0.17222E+00
  rms(prec ) = 0.29172E+00
  weight for this iteration     100.00

 eigenvalues of (default mixing * dielectric matrix)
  average eigenvalue GAMMA=   0.7312
  2.3666  1.9871  1.9871  0.7951  0.7951  0.7327  0.6024  0.4262  0.4262  0.3165
  0.2743  0.2743  0.2404  0.1515  0.1515  0.1719

 Free energy of the ion-electron system (eV)
  ---------------------------------------------------
  alpha Z        PSCENC =       678.29472853
  Ewald energy   TEWEN  =     -8906.22079980
  -Hartree energ DENC   =     -6331.04663127
  -exchange      EXHF   =         0.00000000
  -V(xc)+E(xc)   XCENC  =       782.96632931
  PAW double counting   =     23787.54256203   -23884.50805669
  entropy T*S    EENTRO =        -0.00004377
  eigenvalues    EBANDS =     -2301.39552695
  atomic energy  EATOM  =     16089.85910124
  Solvation  Ediel_sol  =         0.00000000
  ---------------------------------------------------
  free energy    TOTEN  =       -84.50833737 eV

  energy without entropy =      -84.50829359  energy(sigma->0) =      -84.50831548


--------------------------------------------------------------------------------------------------------




----------------------------------------- Iteration    1(  22)  ---------------------------------------


    POTLOK:  cpu time    0.0110: real time    0.0152
    SETDIJ:  cpu time    0.0060: real time    0.0064
     EDDAV:  cpu time    0.3040: real time    0.3063
       DOS:  cpu time    0.0000: real time    0.0003
    CHARGE:  cpu time    0.0120: real time    0.0124
    MIXING:  cpu time    0.0030: real time    0.0026
    --------------------------------------------
      LOOP:  cpu time    0.3379: real time    0.3459

 eigenvalue-minimisations  :   248
 total energy-change (2. order) : 0.3116428E-02  (-0.1517444E-02)
 number of electron     160.0000227 magnetization 
 augmentation part       32.0140554 magnetization 

 Broyden mixing:
  rms(total) = 0.14377E+00    rms(broyden)= 0.14355E+00
  rms(prec ) = 0.22790E+00
  weight for this iteration     100.00

 eigenvalues of (default mixing * dielectric matrix)
  average eigenvalue GAMMA=   0.7396
  2.3083  2.3083  1.5164  1.5164  0.7647  0.7647  0.5465  0.5465  0.3658  0.3658
  0.3235  0.2683  0.2683  0.2355  0.1515  0.1515  0.1719

 Free energy of the ion-electron system (eV)
  ---------------------------------------------------
  alpha Z        PSCENC =       678.29472853
  Ewald energy   TEWEN  =     -8906.22079980
  -Hartree energ DENC   =     -6331.58507116
  -exchange      EXHF   =         0.00000000
  -V(xc)+E(xc)   XCENC  =       783.00024847
  PAW double counting   =     23802.06275910   -23899.07488887
  entropy T*S    EENTRO =        -0.00027559
  eigenvalues    EBANDS =     -2300.84102286
  atomic energy  EATOM  =     16089.85910124
  Solvation  Ediel_sol  =         0.00000000
  ---------------------------------------------------
  free energy    TOTEN  =       -84.50522094 eV

  energy without entropy =      -84.50494534  energy(sigma->0) =      -84.50508314


--------------------------------------------------------------------------------------------------------




----------------------------------------- Iteration    1(  23)  ---------------------------------------


    POTLOK:  cpu time    0.0110: real time    0.0111
    SETDIJ:  cpu time    0.0070: real time    0.0064
     EDDAV:  cpu time    0.3130: real time    0.3131
       DOS:  cpu time    0.0000: real time    0.0003
    CHARGE:  cpu time    0.0130: real time    0.0127
    MIXING:  cpu time    0.0020: real time    0.0026
    --------------------------------------------
      LOOP:  cpu time    0.3459: real time    0.3496

 eigenvalue-minimisations  :   256
 total energy-change (2. order) : 0.3728813E-02  (-0.6107830E-03)
 number of electron     160.0000230 magnetization 
 augmentation part       31.9653147 magnetization 

 Broyden mixing:
  rms(total) = 0.98741E-01    rms(broyden)= 0.98096E-01
  rms(prec ) = 0.15951E+00
  weight for this iteration     100.00

 eigenvalues of (default mixing * dielectric matrix)
  average eigenvalue GAMMA=   0.7302
  2.3532  2.3532  1.5373  1.5373  0.8047  0.8047  0.5358  0.5358  0.4609  0.3673
  0.3673  0.2662  0.2662  0.2498  0.2289  0.1515  0.1515  0.1718

 Free energy of the ion-electron system (eV)
  ---------------------------------------------------
  alpha Z        PSCENC =       678.29472853
  Ewald energy   TEWEN  =     -8906.22079980
  -Hartree energ DENC   =     -6330.92103801
  -exchange      EXHF   =         0.00000000
  -V(xc)+E(xc)   XCENC  =       782.95075171
  PAW double counting   =     23779.31676477   -23876.11204881
  entropy T*S    EENTRO =        -0.00176099
  eigenvalues    EBANDS =     -2301.66719078
  atomic energy  EATOM  =     16089.85910124
  Solvation  Ediel_sol  =         0.00000000
  ---------------------------------------------------
  free energy    TOTEN  =       -84.50149212 eV

  energy without entropy =      -84.49973114  energy(sigma->0) =      -84.50061163


--------------------------------------------------------------------------------------------------------




----------------------------------------- Iteration    1(  24)  ---------------------------------------


    POTLOK:  cpu time    0.0110: real time    0.0111
    SETDIJ:  cpu time    0.0070: real time    0.0064
     EDDAV:  cpu time    0.2970: real time    0.2974
       DOS:  cpu time    0.0000: real time    0.0003
    CHARGE:  cpu time    0.0130: real time    0.0125
    MIXING:  cpu time    0.0030: real time    0.0026
    --------------------------------------------
      LOOP:  cpu time    0.3309: real time    0.3335

 eigenvalue-minimisations  :   240
 total energy-change (2. order) : 0.4278722E-03  (-0.5464501E-03)
 number of electron     160.0000226 magnetization 
 augmentation part       32.0241644 magnetization 

 Broyden mixing:
  rms(total) = 0.85479E-01    rms(broyden)= 0.84558E-01
  rms(prec ) = 0.14423E+00
  weight for this iteration     100.00

 eigenvalues of (default mixing * dielectric matrix)
  average eigenvalue GAMMA=   0.7522
  2.6917  2.0397  2.0397  1.1077  1.1077  0.7984  0.7984  0.6408  0.4757  0.4132
  0.4132  0.3244  0.2721  0.2721  0.2445  0.1515  0.1515  0.1730  0.1769

 Free energy of the ion-electron system (eV)
  ---------------------------------------------------
  alpha Z        PSCENC =       678.29472853
  Ewald energy   TEWEN  =     -8906.22079980
  -Hartree energ DENC   =     -6330.53136773
  -exchange      EXHF   =         0.00000000
  -V(xc)+E(xc)   XCENC  =       782.94981546
  PAW double counting   =     23777.71034424   -23874.49221168
  entropy T*S    EENTRO =        -0.00057548
  eigenvalues    EBANDS =     -2302.07009904
  atomic energy  EATOM  =     16089.85910124
  Solvation  Ediel_sol  =         0.00000000
  ---------------------------------------------------
  free energy    TOTEN  =       -84.50106425 eV

  energy without entropy =      -84.50048877  energy(sigma->0) =      -84.50077651


--------------------------------------------------------------------------------------------------------




----------------------------------------- Iteration    1(  25)  ---------------------------------------


    POTLOK:  cpu time    0.0110: real time    0.0111
    SETDIJ:  cpu time    0.0060: real time    0.0064
     EDDAV:  cpu time    0.2350: real time    0.2347
       DOS:  cpu time    0.0000: real time    0.0003
    CHARGE:  cpu time    0.0120: real time    0.0124
    MIXING:  cpu time    0.0030: real time    0.0028
    --------------------------------------------
      LOOP:  cpu time    0.2680: real time    0.2709

 eigenvalue-minimisations  :   176
 total energy-change (2. order) : 0.1350564E-02  (-0.1365566E-03)
 number of electron     160.0000227 magnetization 
 augmentation part       32.0012098 magnetization 

 Broyden mixing:
  rms(total) = 0.52941E-01    rms(broyden)= 0.52822E-01
  rms(prec ) = 0.90001E-01
  weight for this iteration     100.00

 eigenvalues of (default mixing * dielectric matrix)
  average eigenvalue GAMMA=   0.7786
  3.0293  2.2714  1.7273  1.7273  0.8544  0.8544  0.8008  0.8008  0.4769  0.4769
  0.3931  0.3931  0.3218  0.2726  0.2726  0.2461  0.1515  0.1515  0.1730  0.1761

 Free energy of the ion-electron system (eV)
  ---------------------------------------------------
  alpha Z        PSCENC =       678.29472853
  Ewald energy   TEWEN  =     -8906.22079980
  -Hartree energ DENC   =     -6331.12125976
  -exchange      EXHF   =         0.00000000
  -V(xc)+E(xc)   XCENC  =       782.97159831
  PAW double counting   =     23781.64163145   -23878.43077965
  entropy T*S    EENTRO =        -0.00061508
  eigenvalues    EBANDS =     -2301.49331893
  atomic energy  EATOM  =     16089.85910124
  Solvation  Ediel_sol  =         0.00000000
  ---------------------------------------------------
  free energy    TOTEN  =       -84.49971369 eV

  energy without entropy =      -84.49909861  energy(sigma->0) =      -84.49940615


--------------------------------------------------------------------------------------------------------




----------------------------------------- Iteration    1(  26)  ---------------------------------------


    POTLOK:  cpu time    0.0120: real time    0.0112
    SETDIJ:  cpu time    0.0060: real time    0.0064
     EDDAV:  cpu time    0.1810: real time    0.1808
       DOS:  cpu time    0.0000: real time    0.0003
    CHARGE:  cpu time    0.0130: real time    0.0127
    MIXING:  cpu time    0.0030: real time    0.0029
    --------------------------------------------
      LOOP:  cpu time    0.2170: real time    0.2175

 eigenvalue-minimisations  :   120
 total energy-change (2. order) : 0.9620176E-03  (-0.4760896E-04)
 number of electron     160.0000227 magnetization 
 augmentation part       31.9873526 magnetization 

 Broyden mixing:
  rms(total) = 0.17062E-01    rms(broyden)= 0.16974E-01
  rms(prec ) = 0.26036E-01
  weight for this iteration     100.00

 eigenvalues of (default mixing * dielectric matrix)
  average eigenvalue GAMMA=   0.7727
  2.8248  2.4002  1.7895  1.7895  0.8228  0.8228  0.8464  0.8464  0.6178  0.4703
  0.4703  0.3821  0.3821  0.3170  0.2729  0.2729  0.2463  0.1515  0.1515  0.1733
  0.1754

 Free energy of the ion-electron system (eV)
  ---------------------------------------------------
  alpha Z        PSCENC =       678.29472853
  Ewald energy   TEWEN  =     -8906.22079980
  -Hartree energ DENC   =     -6330.96722607
  -exchange      EXHF   =         0.00000000
  -V(xc)+E(xc)   XCENC  =       782.95505023
  PAW double counting   =     23771.36683937   -23868.08009537
  entropy T*S    EENTRO =        -0.00125088
  eigenvalues    EBANDS =     -2301.70509892
  atomic energy  EATOM  =     16089.85910124
  Solvation  Ediel_sol  =         0.00000000
  ---------------------------------------------------
  free energy    TOTEN  =       -84.49875167 eV

  energy without entropy =      -84.49750079  energy(sigma->0) =      -84.49812623


--------------------------------------------------------------------------------------------------------




----------------------------------------- Iteration    1(  27)  ---------------------------------------


    POTLOK:  cpu time    0.0110: real time    0.0112
    SETDIJ:  cpu time    0.0060: real time    0.0064
     EDDAV:  cpu time    0.1570: real time    0.1573
       DOS:  cpu time    0.0000: real time    0.0003
    --------------------------------------------
      LOOP:  cpu time    0.1750: real time    0.1784

 eigenvalue-minimisations  :    96
 total energy-change (2. order) :-0.9549632E-04  (-0.2710886E-04)
 number of electron     160.0000227 magnetization 
 augmentation part       31.9873526 magnetization 

 Free energy of the ion-electron system (eV)
  ---------------------------------------------------
  alpha Z        PSCENC =       678.29472853
  Ewald energy   TEWEN  =     -8906.22079980
  -Hartree energ DENC   =     -6330.78186408
  -exchange      EXHF   =         0.00000000
  -V(xc)+E(xc)   XCENC  =       782.94780996
  PAW double counting   =     23771.24973737   -23867.97047659
  entropy T*S    EENTRO =        -0.00118539
  eigenvalues    EBANDS =     -2301.87589840
  atomic energy  EATOM  =     16089.85910124
  Solvation  Ediel_sol  =         0.00000000
  ---------------------------------------------------
  free energy    TOTEN  =       -84.49884717 eV

  energy without entropy =      -84.49766177  energy(sigma->0) =      -84.49825447


--------------------------------------------------------------------------------------------------------




 average (electrostatic) potential at core
  the test charge radii are     1.1045  0.9956  0.7215
  (the norm of the test charge is              1.0000)
       1 -31.6794       2 -32.5119       3 -32.2042       4 -33.2569       5 -78.6191
       6 -79.6336       7 -79.1313       8 -78.7192       9 -74.0932      10 -73.8492
      11 -74.1611      12 -75.4913      13 -72.5510      14 -73.4205      15 -72.5446
      16 -75.9519      17 -77.6247      18 -75.2121      19 -78.1903      20 -78.0237
 
 
 
 E-fermi :   2.4554     XC(G=0): -10.1795     alpha+bet :-10.2226


 k-point     1 :       0.0000    0.0000    0.2500
  band No.  band energies     occupation 
      1     -63.1294      2.00000
      2     -61.8967      2.00000
      3     -61.7402      2.00000
      4     -61.4498      2.00000
      5     -39.5784      2.00000
      6     -37.7372      2.00000
      7     -37.6609      2.00000
      8     -36.7204      2.00000
      9     -36.4450      2.00000
[...]
  entropy T*S    EENTRO =         0.00000000
  eigenvalues    EBANDS =     -2235.82137724
  atomic energy  EATOM  =     16089.85910124
  Solvation  Ediel_sol  =         0.00000000
  ---------------------------------------------------
  free energy    TOTEN  =      -156.00505094 eV

  energy without entropy =     -156.00505094  energy(sigma->0) =     -156.00505094


--------------------------------------------------------------------------------------------------------




----------------------------------------- Iteration   99(   5)  ---------------------------------------


    POTLOK:  cpu time    0.0110: real time    0.0110
    SETDIJ:  cpu time    0.0060: real time    0.0065
     EDDAV:  cpu time    0.2290: real time    0.2286
       DOS:  cpu time    0.0000: real time    0.0001
    CHARGE:  cpu time    0.0120: real time    0.0123
    MIXING:  cpu time    0.0020: real time    0.0013
    --------------------------------------------
      LOOP:  cpu time    0.2600: real time    0.2630

 eigenvalue-minimisations  :   168
 total energy-change (2. order) : 0.4835002E-03  (-0.1694565E-03)
 number of electron     160.0000000 magnetization 
 augmentation part       32.2432387 magnetization 

 Broyden mixing:
  rms(total) = 0.10144E-01    rms(broyden)= 0.10139E-01
  rms(prec ) = 0.12572E-01
  weight for this iteration     100.00

 eigenvalues of (default mixing * dielectric matrix)
  average eigenvalue GAMMA=   0.8704
  1.4111  1.4111  0.4253  0.2340

 Free energy of the ion-electron system (eV)
  ---------------------------------------------------
  alpha Z        PSCENC =       724.16679043
  Ewald energy   TEWEN  =    -10151.82538354
  -Hartree energ DENC   =     -5248.78787464
  -exchange      EXHF   =         0.00000000
  -V(xc)+E(xc)   XCENC  =       776.11318406
  PAW double counting   =     19906.46247360   -20017.16190817
  entropy T*S    EENTRO =         0.00000000
  eigenvalues    EBANDS =     -2234.83095042
  atomic energy  EATOM  =     16089.85910124
  Solvation  Ediel_sol  =         0.00000000
  ---------------------------------------------------
  free energy    TOTEN  =      -156.00456744 eV

  energy without entropy =     -156.00456744  energy(sigma->0) =     -156.00456744


--------------------------------------------------------------------------------------------------------




----------------------------------------- Iteration   99(   6)  ---------------------------------------


    POTLOK:  cpu time    0.0110: real time    0.0110
    SETDIJ:  cpu time    0.0060: real time    0.0065
     EDDAV:  cpu time    0.1910: real time    0.1904
       DOS:  cpu time    0.0000: real time    0.0001
    --------------------------------------------
      LOOP:  cpu time    0.2080: real time    0.2112

 eigenvalue-minimisations  :   128
 total energy-change (2. order) : 0.2851561E-04  (-0.2734472E-04)
 number of electron     160.0000000 magnetization 
 augmentation part       32.2432387 magnetization 

 Free energy of the ion-electron system (eV)
  ---------------------------------------------------
  alpha Z        PSCENC =       724.16679043
  Ewald energy   TEWEN  =    -10151.82538354
  -Hartree energ DENC   =     -5248.46442145
  -exchange      EXHF   =         0.00000000
  -V(xc)+E(xc)   XCENC  =       776.09449244
  PAW double counting   =     19907.89932173   -20018.58058632
  entropy T*S    EENTRO =         0.00000000
  eigenvalues    EBANDS =     -2235.15385346
  atomic energy  EATOM  =     16089.85910124
  Solvation  Ediel_sol  =         0.00000000
  ---------------------------------------------------
  free energy    TOTEN  =      -156.00453892 eV

  energy without entropy =     -156.00453892  energy(sigma->0) =     -156.00453892


--------------------------------------------------------------------------------------------------------




 average (electrostatic) potential at core
  the test charge radii are     1.1045  0.9956  0.7215
  (the norm of the test charge is              1.0000)
       1 -32.4313       2 -32.3855       3 -33.0310       4 -32.2100       5 -78.5604
       6 -78.9735       7 -79.1936       8 -78.2476       9 -73.6335      10 -73.8132
      11 -73.9052      12 -73.9002      13 -74.6274      14 -73.5580      15 -73.5769
      16 -73.4904      17 -73.4849      18 -73.5907      19 -75.3491      20 -73.2727
 
 
 
 E-fermi :   3.5954     XC(G=0): -10.7180     alpha+bet :-10.9140


 k-point     1 :       0.0000    0.0000    0.2500
  band No.  band energies     occupation 
      1     -61.9078      2.00000
      2     -61.6974      2.00000
      3     -61.3085      2.00000
      4     -60.9860      2.00000
      5     -36.4009      2.00000
      6     -36.3060      2.00000
      7     -36.2670      2.00000
      8     -36.2439      2.00000
      9     -36.0979      2.00000
     10     -36.0910      2.00000
     11     -35.9721      2.00000
     12     -35.9201      2.00000
     13     -35.7522      2.00000
     14     -35.4205      2.00000
     15     -35.1064      2.00000
     16     -35.0482      2.00000
     17     -26.0981      2.00000
     18     -25.5865      2.00000
     19     -25.4999      2.00000
     20     -25.3424      2.00000
     21     -19.8130      2.00000
     22     -15.6389      2.00000
     23     -15.4727      2.00000
     24     -15.1422      2.00000
     25     -15.0005      2.00000
     26     -14.9135      2.00000
     27     -14.8011      2.00000
     28     -14.6261      2.00000
     29     -14.5786      2.00000
     30     -14.4978      2.00000
     31     -14.2441      2.00000
     32     -12.8498      2.00000
     33      -9.9510      2.00000
     34      -9.9178      2.00000
     35      -9.8282      2.00000
     36      -9.5952      2.00000
     37      -9.4660      2.00000
     38      -9.3735      2.00000
     39      -9.3272      2.00000
     40      -9.2761      2.00000
     41      -9.2329      2.00000
     42      -9.1820      2.00000
     43      -9.1018      2.00000
     44      -9.0306      2.00000
     45      -4.5371      2.00000
     46      -3.7166      2.00000
     47      -3.4571      2.00000
     48      -3.1382      2.00000
     49      -2.9499      2.00000
     50      -2.8221      2.00000
     51      -2.6302      2.00000
     52      -2.5570      2.00000
     53      -2.4455      2.00000
     54      -2.3123      2.00000
     55      -2.1769      2.00000
     56      -2.0024      2.00000
     57      -1.9425      2.00000
     58      -1.8130      2.00000
     59      -1.6608      2.00000
     60      -1.5898      2.00000
     61      -1.4923      2.00000
     62      -1.4234      2.00000
     63      -1.2936      2.00000
     64      -1.1610      2.00000
     65      -0.9996      2.00000
     66      -0.7442      2.00000
     67      -0.6814      2.00000
     68      -0.5194      2.00000
     69      -0.4040      2.00000
     70      -0.2811      2.00000
     71      -0.1844      2.00000
     72      -0.0279      2.00000
     73       0.0939      2.00000
     74       0.2464      2.00000
     75       0.3958      2.00000
     76       0.4741      2.00000
     77       0.5939      2.00000
     78       0.7211      2.00000
     79       1.3201      2.00000
     80       3.4547      2.00000
     81       3.9070      0.00000
     82       4.2063      0.00000
     83       4.4371      0.00000
     84       4.5158      0.00000
     85       4.7017      0.00000
     86       4.8827      0.00000
     87       5.0366      0.00000
     88       5.1018      0.00000
     89       5.1785      0.00000
     90       5.5419      0.00000
     91       5.7381      0.00000
     92       6.0187      0.00000
     93       6.1610      0.00000
     94       6.3057      0.00000
     95       6.4584      0.00000
     96       6.6401      0.00000


--------------------------------------------------------------------------------------------------------


 soft charge-density along one line, spin component           1
         0         1         2         3         4         5         6         7         8         9
 total charge-density along one line
 
 pseudopotential strength for first ion, spin component:           1
-14.933   0.888   0.001  -0.002   0.001   0.001  -0.001   0.001
  0.888  -2.764   0.002  -0.002   0.001   0.001  -0.002   0.001
  0.001   0.002 -16.057   0.005   0.002 -15.849   0.004   0.002
 -0.002  -0.002   0.005 -16.053  -0.006   0.004 -15.845  -0.005
  0.001   0.001   0.002  -0.006 -16.063   0.002  -0.005 -15.855
  0.001   0.001 -15.849   0.004   0.002 -15.637   0.004   0.002
 -0.001  -0.002   0.004 -15.845  -0.005   0.004 -15.633  -0.005
  0.001   0.001   0.002  -0.005 -15.855   0.002  -0.005 -15.643
  0.002   0.000   0.001   0.000   0.003   0.001   0.000   0.002
  0.004   0.001  -0.002   0.000   0.000  -0.002   0.000   0.000
  0.003   0.001  -0.002  -0.002  -0.001  -0.002  -0.002  -0.001
 -0.004  -0.001   0.000   0.001  -0.003   0.000   0.001  -0.003
 -0.003   0.000   0.000   0.000   0.001   0.000   0.000   0.001
 total augmentation occupancy for first ion, spin component:           1
  2.001   0.000   0.019  -0.033   0.017  -0.020   0.034  -0.017  -0.001  -0.002  -0.002   0.003   0.002
  0.000   0.406  -0.101   0.120  -0.031   0.088  -0.098   0.021   0.007   0.001   0.008  -0.007  -0.024
  0.019  -0.101   5.581   0.215   0.263  -3.573  -0.165  -0.238  -0.022  -0.032  -0.024  -0.015   0.001
 -0.033   0.120   0.215   5.399  -0.354  -0.165  -3.369   0.292  -0.011  -0.059   0.066   0.027   0.011
  0.017  -0.031   0.263  -0.354   3.964  -0.237   0.292  -2.083  -0.001  -0.013   0.028   0.002  -0.008
 -0.020   0.088  -3.573  -0.165  -0.237   3.578   0.118   0.214   0.017   0.032   0.024   0.014  -0.003
  0.034  -0.098  -0.165  -3.369   0.292   0.118   3.350  -0.233   0.010   0.054  -0.057  -0.024  -0.008
 -0.017   0.021  -0.238   0.292  -2.083   0.214  -0.233   2.205  -0.004   0.012  -0.022   0.003   0.006
 -0.001   0.007  -0.022  -0.011  -0.001   0.017   0.010  -0.004   0.013  -0.001  -0.001   0.000   0.003
 -0.002   0.001  -0.032  -0.059  -0.013   0.032   0.054   0.012  -0.001   0.013  -0.002   0.001  -0.003
 -0.002   0.008  -0.024   0.066   0.028   0.024  -0.057  -0.022  -0.001  -0.002   0.021   0.002   0.004
  0.003  -0.007  -0.015   0.027   0.002   0.014  -0.024   0.003   0.000   0.001   0.002   0.009  -0.002
  0.002  -0.024   0.001   0.011  -0.008  -0.003  -0.008   0.006   0.003  -0.003   0.004  -0.002   0.017


------------------------ aborting loop because EDIFF is reached ----------------------------------------


    CHARGE:  cpu time    0.0120: real time    0.0120
    FORLOC:  cpu time    0.0070: real time    0.0073
    FORNL :  cpu time    0.2290: real time    0.2292
    STRESS:  cpu time    0.1820: real time    0.1824
    FORCOR:  cpu time    0.0200: real time    0.0197
    FORHAR:  cpu time    0.0150: real time    0.0158
    MIXING:  cpu time    0.0020: real time    0.0012
    OFIELD:  cpu time    0.0000: real time    0.0000

  FORCE on cell =-STRESS in cart. coord.  units (eV):
  Direction    XX          YY          ZZ          XY          YZ          ZX
  --------------------------------------------------------------------------------------
  Alpha Z   724.16679   724.16679   724.16679
  Ewald   -3936.93774 -3215.79621 -2999.12074   101.58774   502.12725   140.75732
  Hartree  1303.94617  1885.56556  2058.60611    66.01876   387.02905    50.62234
  E(xc)    -776.95073  -776.95451  -776.95407     0.00014     0.00038     0.00061
  Local     104.77478 -1210.08253 -1604.94952  -175.88607  -888.59528  -175.65433
  n-local  -616.26275  -622.98743  -622.30908     0.32754    -0.48701     2.13194
  augment   412.51667   410.38753   413.21432     3.85967     0.67300    -2.96380
  Kinetic  2784.25976  2805.40938  2806.67873     3.87298    -0.77674   -14.95404
  Fock        0.00000     0.00000     0.00000     0.00000     0.00000     0.00000
  -------------------------------------------------------------------------------------
  Total      -0.48705    -0.29143    -0.66746    -0.21924    -0.02934    -0.05996
  in kB      -2.96215    -1.77242    -4.05934    -1.33334    -0.17847    -0.36464
  external pressure =       -2.93 kB  Pullay stress =        0.00 kB


 VOLUME and BASIS-vectors are now :
 -----------------------------------------------------------------------------
  energy-cutoff  :      400.00
  volume of cell :      263.44
      direct lattice vectors                 reciprocal lattice vectors
     7.072225777  0.102980060  1.001201443     0.144651833  0.006061562 -0.023606283
    -0.289118601  7.360463523  0.118374078    -0.001941390  0.135788825 -0.000253291
     0.844040073  0.021725246  5.177589168    -0.027927247 -0.004276647  0.197710671

  length of vectors
     7.143485610  7.367090692  5.245979911     0.146690668  0.135802938  0.199719128


 FORCES acting on ions
    electron-ion (+dipol)            ewald-force                    non-local-force                 convergence-correction
 -----------------------------------------------------------------------------------------------
   -.133E+03 0.473E+02 0.148E+02   0.134E+03 -.467E+02 -.157E+02   -.449E+00 -.556E+00 0.910E+00   -.206E-01 0.201E-02 0.345E-02
   0.285E+02 -.435E+02 0.414E+02   -.283E+02 0.442E+02 -.415E+02   -.186E+00 -.646E+00 0.385E-01   0.614E-02 -.131E-01 0.716E-02
   0.497E+02 -.114E+02 -.430E+02   -.487E+02 0.106E+02 0.425E+02   -.101E+01 0.828E+00 0.414E+00   0.968E-02 0.120E-01 -.479E-02
   -.748E+02 -.525E+02 0.916E+02   0.735E+02 0.520E+02 -.896E+02   0.128E+01 0.426E+00 -.193E+01   0.112E-02 0.138E-03 0.208E-02
   -.944E+02 -.307E+02 -.167E+03   0.945E+02 0.297E+02 0.166E+03   -.100E+00 0.107E+01 0.881E-01   -.240E-01 -.734E-02 -.786E-02
   0.136E+03 0.248E+02 0.830E+02   -.137E+03 -.252E+02 -.822E+02   0.127E+01 0.417E+00 -.882E+00   0.921E-03 0.433E-01 -.114E-01
   0.813E+02 0.747E+02 -.134E+03   -.825E+02 -.746E+02 0.134E+03   0.115E+01 -.732E-01 0.174E+00   0.440E-01 -.243E-01 -.301E-01
   0.144E+02 -.243E+02 0.143E+03   -.146E+02 0.231E+02 -.144E+03   0.216E+00 0.117E+01 0.162E+01   -.180E-01 0.130E-01 0.552E-02
   -.328E+03 -.991E+02 0.179E+03   0.346E+03 0.105E+03 -.192E+03   -.180E+02 -.617E+01 0.132E+02   -.335E-01 -.258E-02 -.114E-03
   0.367E+02 -.940E+01 -.331E+02   -.332E+02 0.101E+02 0.358E+02   -.348E+01 -.642E+00 -.272E+01   0.725E-02 -.138E-01 0.591E-02
   0.305E+03 0.726E+02 -.755E+01   -.324E+03 -.767E+02 0.521E+01   0.189E+02 0.413E+01 0.234E+01   0.454E-01 -.126E-01 -.166E-01
   -.171E+03 0.141E+02 -.308E+02   0.180E+03 -.175E+02 0.346E+02   -.820E+01 0.341E+01 -.375E+01   -.195E-01 -.125E-01 0.273E-01
   -.323E+03 -.193E+03 -.638E+02   0.354E+03 0.204E+03 0.721E+02   -.310E+02 -.112E+02 -.828E+01   -.115E-01 -.161E-02 -.541E-02
   0.196E+03 0.273E+03 0.107E+02   -.205E+03 -.293E+03 -.122E+02   0.853E+01 0.204E+02 0.141E+01   0.293E-01 0.351E-01 0.917E-02
   0.241E+03 -.153E+03 -.123E+03   -.259E+03 0.165E+03 0.130E+03   0.181E+02 -.124E+02 -.726E+01   0.207E-01 -.169E-01 -.700E-02
   -.222E+03 0.305E+03 0.796E+01   0.233E+03 -.325E+03 -.648E+01   -.109E+02 0.197E+02 -.147E+01   -.344E-01 0.401E-01 -.396E-02
   0.333E+03 0.251E+02 -.124E+03   -.354E+03 -.285E+02 0.132E+03   0.219E+02 0.331E+01 -.772E+01   0.286E-01 -.113E-02 -.225E-01
   0.612E+02 -.116E+03 0.212E+03   -.605E+02 0.123E+03 -.228E+03   -.649E+00 -.757E+01 0.160E+02   0.228E-01 -.249E-02 0.129E-01
   0.104E+03 -.156E+03 0.156E+03   -.130E+03 0.168E+03 -.174E+03   0.263E+02 -.114E+02 0.176E+02   -.131E-01 -.436E-02 0.144E-01
   -.244E+03 0.473E+02 -.217E+03   0.262E+03 -.482E+02 0.233E+03   -.182E+02 0.804E+00 -.152E+02   -.386E-01 0.540E-02 -.230E-01
 -----------------------------------------------------------------------------------------------
   -.560E+01 -.505E+01 -.458E+01   0.568E-13 -.270E-12 -.142E-12   0.560E+01 0.501E+01 0.463E+01   0.257E-02 0.385E-01 -.447E-01
 
 
 POSITION                                       TOTAL-FORCE (eV/Angst)
 -----------------------------------------------------------------------------------
      5.40438      6.85622      2.86561         0.003132     -0.029495      0.041966
      1.69929      0.94439      3.47830        -0.014840      0.012016     -0.032726
      1.55260      3.03841      0.91007         0.048142      0.000838     -0.073465
     -0.20325      4.73173      3.91687         0.001141     -0.057169      0.054502
      5.30666      2.68129      2.16361        -0.002629     -0.003337      0.020500
      3.10946      4.87511      3.51379        -0.025379      0.101882     -0.054018
      1.96308      6.76933      0.66754        -0.018476      0.038444     -0.008774
      5.64059      1.27414      5.33994         0.061843     -0.041321      0.075030
      6.18819      2.48265      0.65489        -0.012047     -0.096401      0.079997
      2.63252      5.99413      2.11357        -0.003612      0.038186     -0.007408
      1.97047      5.72615      4.72461         0.006366      0.070428     -0.005095
      5.89046      1.90661      3.57730         0.028927      0.015932      0.062811
      6.00504      4.44450      2.43524        -0.040792     -0.036082      0.013941
      2.38264      3.39285      3.42604        -0.067581      0.050683     -0.078994
      1.01853      0.33789      1.12456         0.032514     -0.012403     -0.044823
      6.18334      7.22986      5.55867        -0.009650      0.021724      0.000029
      3.80402      1.80883      1.62706         0.034465     -0.043599     -0.053483
      3.99224      0.48676      4.69589         0.009013      0.015936      0.023960
      4.59887      4.42985      2.05053         0.010894     -0.009630      0.022807
      4.37682      4.91217      4.57115        -0.041431     -0.036634     -0.036759
 -----------------------------------------------------------------------------------
    total drift:                                0.003518     -0.005299      0.003509


--------------------------------------------------------------------------------------------------------



  FREE ENERGIE OF THE ION-ELECTRON SYSTEM (eV)
  ---------------------------------------------------
  free  energy   TOTEN  =      -156.00453892 eV

  energy  without entropy=     -156.00453892  energy(sigma->0) =     -156.00453892
 
 d Force = 0.2424258E-02[ 0.185E-02, 0.300E-02]  d Energy = 0.2308458E-02 0.116E-03
 d Force =-0.9144947E-01[-0.106E+00,-0.772E-01]  d Ewald  =-0.6054078E+01 0.596E+01


--------------------------------------------------------------------------------------------------------


    POTLOK:  cpu time    0.0180: real time    0.0181


--------------------------------------------------------------------------------------------------------




--------------------------------------------------------------------------------------------------------


  
 reached required accuracy - stopping structural energy minimisation
 writing wavefunctions
     LOOP+:  cpu time    2.1747: real time    2.3604
    4ORBIT:  cpu time    0.0000: real time    0.0000

 total amount of memory used by VASP on root node    36343. kBytes
========================================================================

   base      :      30000. kBytes
   nonl-proj :        955. kBytes
   fftplans  :       1541. kBytes
   grid      :       2752. kBytes
   one-center:         77. kBytes
   wavefun   :       1018. kBytes
 
  
  
 General timing and accounting informations for this job:
 ========================================================
  
                  Total CPU time used (sec):      363.032
                            User time (sec):      352.478
                          System time (sec):       10.553
                         Elapsed time (sec):      385.486
  
                   Maximum memory used (kb):       37764.
                   Average memory used (kb):           0.
  
                          Minor page faults:      6246527
                          Major page faults:           46
                 Voluntary context switches:        28240
